r 0.534816 5 0 cbr 1000 ------- 0 1.0 0.0 0 0
r 0.617888 5 0 cbr 1000 ------- 0 1.0 0.0 1 4
r 0.66838 5 0 cbr 1000 ------- 0 1.0 0.0 2 8
r 0.778532 5 0 cbr 1000 ------- 0 1.0 0.0 3 12
r 0.855708 5 0 cbr 1000 ------- 0 1.0 0.0 4 16
r 0.90876 5 0 cbr 1000 ------- 0 1.0 0.0 5 20
r 1.007116 5 0 cbr 1000 ------- 0 1.0 0.0 6 24
r 1.077104 5 0 cbr 1000 ------- 0 1.0 0.0 7 28
r 1.159416 5 0 cbr 1000 ------- 0 1.0 0.0 8 32
r 1.237236 5 0 cbr 1000 ------- 0 1.0 0.0 9 36
r 1.30838 5 0 cbr 1000 ------- 0 1.0 0.0 10 40
r 1.42826 5 0 cbr 1000 ------- 0 1.0 0.0 11 44
r 1.487116 5 0 cbr 1000 ------- 0 1.0 0.0 12 48
r 1.548248 5 0 cbr 1000 ------- 0 1.0 0.0 13 52
r 1.628892 5 0 cbr 1000 ------- 0 1.0 0.0 14 56
r 1.71236 5 0 cbr 1000 ------- 0 1.0 0.0 15 60
r 1.80852 5 0 cbr 1000 ------- 0 1.0 0.0 16 64
r 1.885448 5 0 cbr 1000 ------- 0 1.0 0.0 17 68
r 1.984164 5 0 cbr 1000 ------- 0 1.0 0.0 18 72
r 2.037616 5 0 cbr 1000 ------- 0 1.0 0.0 19 76
r 2.117748 5 0 cbr 1000 ------- 0 1.0 0.0 20 80
r 2.229284 5 0 cbr 1000 ------- 0 1.0 0.0 21 84
r 2.277236 5 0 cbr 1000 ------- 0 1.0 0.0 22 88
r 2.357236 5 0 cbr 1000 ------- 0 1.0 0.0 23 92
r 2.45584 5 0 cbr 1000 ------- 0 1.0 0.0 24 96
r 2.536352 5 0 cbr 1000 ------- 0 1.0 0.0 25 100
r 2.589024 5 0 cbr 1000 ------- 0 1.0 0.0 26 104
r 2.69802 5 0 cbr 1000 ------- 0 1.0 0.0 27 108
r 2.778532 5 0 cbr 1000 ------- 0 1.0 0.0 28 112
r 2.82838 5 0 cbr 1000 ------- 0 1.0 0.0 29 116
r 2.94608 5 0 cbr 1000 ------- 0 1.0 0.0 30 120
r 2.98838 5 0 cbr 1000 ------- 0 1.0 0.0 31 124
r 3.099024 5 0 cbr 1000 ------- 0 1.0 0.0 32 128
r 3.14838 5 0 cbr 1000 ------- 0 1.0 0.0 33 132
r 3.253792 5 0 cbr 1000 ------- 0 1.0 0.0 34 136
r 3.317368 5 0 cbr 1000 ------- 0 1.0 0.0 35 140
r 3.408652 5 0 cbr 1000 ------- 0 1.0 0.0 36 144
r 3.46876 5 0 cbr 1000 ------- 0 1.0 0.0 37 148
r 3.57544 5 0 cbr 1000 ------- 0 1.0 0.0 38 152
r 3.65622 5 0 cbr 1000 ------- 0 1.0 0.0 39 156
r 3.734816 5 0 cbr 1000 ------- 0 1.0 0.0 40 160
r 3.807116 5 0 cbr 1000 ------- 0 1.0 0.0 41 164
r 3.87056 5 0 cbr 1000 ------- 0 1.0 0.0 42 168
r 3.948248 5 0 cbr 1000 ------- 0 1.0 0.0 43 172
r 4.04558 5 0 cbr 1000 ------- 0 1.0 0.0 44 176
r 4.125068 5 0 cbr 1000 ------- 0 1.0 0.0 45 180
r 4.197616 5 0 cbr 1000 ------- 0 1.0 0.0 46 184
r 4.285448 5 0 cbr 1000 ------- 0 1.0 0.0 47 188
r 4.356724 5 0 cbr 1000 ------- 0 1.0 0.0 48 192
r 4.429404 5 0 cbr 1000 ------- 0 1.0 0.0 49 196
r 4.535328 5 0 cbr 1000 ------- 0 1.0 0.0 50 200
r 4.589916 5 0 cbr 1000 ------- 0 1.0 0.0 51 204
r 4.676592 5 0 cbr 1000 ------- 0 1.0 0.0 52 208
r 4.776844 5 0 cbr 1000 ------- 0 1.0 0.0 53 212
r 4.84558 5 0 cbr 1000 ------- 0 1.0 0.0 54 216
r 4.937888 5 0 cbr 1000 ------- 0 1.0 0.0 55 220
r 5.019804 5 0 cbr 1000 ------- 0 1.0 0.0 56 224
r 5.069404 5 0 cbr 1000 ------- 0 1.0 0.0 57 228
r 5.17584 5 0 cbr 1000 ------- 0 1.0 0.0 58 232
r 5.238772 5 0 cbr 1000 ------- 0 1.0 0.0 59 236
r 5.331724 5 0 cbr 1000 ------- 0 1.0 0.0 60 240
r 5.413792 5 0 cbr 1000 ------- 0 1.0 0.0 61 244
r 5.469024 5 0 cbr 1000 ------- 0 1.0 0.0 62 248
r 5.54876 5 0 cbr 1000 ------- 0 1.0 0.0 63 252
r 5.637748 5 0 cbr 1000 ------- 0 1.0 0.0 64 256
r 5.744012 5 0 cbr 1000 ------- 0 1.0 0.0 65 260
r 5.815708 5 0 cbr 1000 ------- 0 1.0 0.0 66 264
r 5.887628 5 0 cbr 1000 ------- 0 1.0 0.0 67 268
r 5.956592 5 0 cbr 1000 ------- 0 1.0 0.0 68 272
r 6.04596 5 0 cbr 1000 ------- 0 1.0 0.0 69 276
r 6.10838 5 0 cbr 1000 ------- 0 1.0 0.0 70 280
r 6.215196 5 0 cbr 1000 ------- 0 1.0 0.0 71 284
r 6.298268 5 0 cbr 1000 ------- 0 1.0 0.0 72 288
r 6.374304 5 0 cbr 1000 ------- 0 1.0 0.0 73 292
r 6.446092 5 0 cbr 1000 ------- 0 1.0 0.0 74 296
r 6.516592 5 0 cbr 1000 ------- 0 1.0 0.0 75 300
r 6.60814 5 0 cbr 1000 ------- 0 1.0 0.0 76 304
r 6.692236 5 0 cbr 1000 ------- 0 1.0 0.0 77 308
r 6.748248 5 0 cbr 1000 ------- 0 1.0 0.0 78 312
r 6.838772 5 0 cbr 1000 ------- 0 1.0 0.0 79 316
r 6.908248 5 0 cbr 1000 ------- 0 1.0 0.0 80 320
r 7.015196 5 0 cbr 1000 ------- 0 1.0 0.0 81 324
r 7.076592 5 0 cbr 1000 ------- 0 1.0 0.0 82 328
r 7.15788 5 0 cbr 1000 ------- 0 1.0 0.0 83 332
r 7.228892 5 0 cbr 1000 ------- 0 1.0 0.0 84 336
r 7.32776 5 0 cbr 1000 ------- 0 1.0 0.0 85 340
r 7.4436 5 0 cbr 1000 ------- 0 1.0 0.0 86 344
r 7.46838 5 0 cbr 1000 ------- 0 1.0 0.0 87 348
r 7.574304 5 0 cbr 1000 ------- 0 1.0 0.0 88 352
r 7.647116 5 0 cbr 1000 ------- 0 1.0 0.0 89 356
r 7.717236 5 0 cbr 1000 ------- 0 1.0 0.0 90 360
r 7.821452 5 0 cbr 1000 ------- 0 1.0 0.0 91 364
r 7.894304 5 0 cbr 1000 ------- 0 1.0 0.0 92 368
r 7.96558 5 0 cbr 1000 ------- 0 1.0 0.0 93 372
r 8.03826 5 0 cbr 1000 ------- 0 1.0 0.0 94 376
r 8.130832 5 0 cbr 1000 ------- 0 1.0 0.0 95 380
r 8.215328 5 0 cbr 1000 ------- 0 1.0 0.0 96 384
r 8.277104 5 0 cbr 1000 ------- 0 1.0 0.0 97 388
r 8.361084 5 0 cbr 1000 ------- 0 1.0 0.0 98 392
r 8.42876 5 0 cbr 1000 ------- 0 1.0 0.0 99 396
r 8.527116 5 0 cbr 1000 ------- 0 1.0 0.0 100 400
r 8.598128 5 0 cbr 1000 ------- 0 1.0 0.0 101 404
r 8.677748 5 0 cbr 1000 ------- 0 1.0 0.0 102 408
r 8.74838 5 0 cbr 1000 ------- 0 1.0 0.0 103 412
r 8.863388 5 0 cbr 1000 ------- 0 1.0 0.0 104 416
r 8.92814 5 0 cbr 1000 ------- 0 1.0 0.0 105 420
r 8.998772 5 0 cbr 1000 ------- 0 1.0 0.0 106 424
r 9.076724 5 0 cbr 1000 ------- 0 1.0 0.0 107 428
r 9.158772 5 0 cbr 1000 ------- 0 1.0 0.0 108 432
r 9.238128 5 0 cbr 1000 ------- 0 1.0 0.0 109 436
r 9.32082 5 0 cbr 1000 ------- 0 1.0 0.0 110 440
r 9.407116 5 0 cbr 1000 ------- 0 1.0 0.0 111 444
r 9.490188 5 0 cbr 1000 ------- 0 1.0 0.0 112 448
r 9.576352 5 0 cbr 1000 ------- 0 1.0 0.0 113 452
r 9.64814 5 0 cbr 1000 ------- 0 1.0 0.0 114 456
r 9.736464 5 0 cbr 1000 ------- 0 1.0 0.0 115 460
r 9.799284 5 0 cbr 1000 ------- 0 1.0 0.0 116 464
r 9.893792 5 0 cbr 1000 ------- 0 1.0 0.0 117 468
r 9.97366 5 0 cbr 1000 ------- 0 1.0 0.0 118 472
r 10.052104 5 0 cbr 1000 ------- 0 1.0 0.0 119 476
r 10.117616 5 0 cbr 1000 ------- 0 1.0 0.0 120 480
r 10.22058 5 0 cbr 1000 ------- 0 1.0 0.0 121 484
r 10.285068 5 0 cbr 1000 ------- 0 1.0 0.0 122 488
r 10.375708 5 0 cbr 1000 ------- 0 1.0 0.0 123 492
r 10.437236 5 0 cbr 1000 ------- 0 1.0 0.0 124 496
