r 0.010032 0 1 tcp 40 ------- 0 0.0 2.0 0 0
r 0.060432 1 2 tcp 40 ------- 0 0.0 2.0 0 0
r 0.110832 2 1 ack 40 ------- 0 2.0 0.0 0 1
r 0.120864 1 0 ack 40 ------- 0 2.0 0.0 0 1
r 0.131664 0 1 tcp 1000 ------- 0 0.0 2.0 1 2
r 0.132464 0 1 tcp 1000 ------- 0 0.0 2.0 2 3
r 0.191664 1 2 tcp 1000 ------- 0 0.0 2.0 1 2
r 0.201664 1 2 tcp 1000 ------- 0 0.0 2.0 2 3
r 0.242064 2 1 ack 40 ------- 0 2.0 0.0 1 4
r 0.252064 2 1 ack 40 ------- 0 2.0 0.0 2 5
r 0.252096 1 0 ack 40 ------- 0 2.0 0.0 1 4
r 0.262096 1 0 ack 40 ------- 0 2.0 0.0 2 5
r 0.262896 0 1 tcp 1000 ------- 0 0.0 2.0 3 6
r 0.263696 0 1 tcp 1000 ------- 0 0.0 2.0 4 7
r 0.272896 0 1 tcp 1000 ------- 0 0.0 2.0 5 8
r 0.273696 0 1 tcp 1000 ------- 0 0.0 2.0 6 9
r 0.322896 1 2 tcp 1000 ------- 0 0.0 2.0 3 6
r 0.332896 1 2 tcp 1000 ------- 0 0.0 2.0 4 7
r 0.342896 1 2 tcp 1000 ------- 0 0.0 2.0 5 8
r 0.352896 1 2 tcp 1000 ------- 0 0.0 2.0 6 9
r 0.373296 2 1 ack 40 ------- 0 2.0 0.0 3 10
r 0.383296 2 1 ack 40 ------- 0 2.0 0.0 4 11
r 0.383328 1 0 ack 40 ------- 0 2.0 0.0 3 10
r 0.393296 2 1 ack 40 ------- 0 2.0 0.0 5 12
r 0.393328 1 0 ack 40 ------- 0 2.0 0.0 4 11
r 0.394128 0 1 tcp 1000 ------- 0 0.0 2.0 7 14
r 0.394928 0 1 tcp 1000 ------- 0 0.0 2.0 8 15
r 0.403296 2 1 ack 40 ------- 0 2.0 0.0 6 13
r 0.403328 1 0 ack 40 ------- 0 2.0 0.0 5 12
r 0.404128 0 1 tcp 1000 ------- 0 0.0 2.0 9 16
r 0.404928 0 1 tcp 1000 ------- 0 0.0 2.0 10 17
r 0.413328 1 0 ack 40 ------- 0 2.0 0.0 6 13
r 0.414128 0 1 tcp 1000 ------- 0 0.0 2.0 11 18
r 0.414928 0 1 tcp 1000 ------- 0 0.0 2.0 12 19
r 0.424128 0 1 tcp 1000 ------- 0 0.0 2.0 13 20
r 0.424928 0 1 tcp 1000 ------- 0 0.0 2.0 14 21
r 0.454128 1 2 tcp 1000 ------- 0 0.0 2.0 7 14
r 0.464128 1 2 tcp 1000 ------- 0 0.0 2.0 8 15
r 0.474128 1 2 tcp 1000 ------- 0 0.0 2.0 9 16
r 0.484128 1 2 tcp 1000 ------- 0 0.0 2.0 10 17
r 0.494128 1 2 tcp 1000 ------- 0 0.0 2.0 11 18
r 0.504128 1 2 tcp 1000 ------- 0 0.0 2.0 12 19
r 0.504528 2 1 ack 40 ------- 0 2.0 0.0 7 22
r 0.514128 1 2 tcp 1000 ------- 0 0.0 2.0 13 20
r 0.514528 2 1 ack 40 ------- 0 2.0 0.0 8 23
r 0.51456 1 0 ack 40 ------- 0 2.0 0.0 7 22
r 0.524128 1 2 tcp 1000 ------- 0 0.0 2.0 14 21
r 0.524528 2 1 ack 40 ------- 0 2.0 0.0 9 24
r 0.52456 1 0 ack 40 ------- 0 2.0 0.0 8 23
r 0.52536 0 1 tcp 1000 ------- 0 0.0 2.0 15 29
r 0.52616 0 1 tcp 1000 ------- 0 0.0 2.0 16 30
r 0.534528 2 1 ack 40 ------- 0 2.0 0.0 10 25
r 0.53456 1 0 ack 40 ------- 0 2.0 0.0 9 24
r 0.53536 0 1 tcp 1000 ------- 0 0.0 2.0 17 32
r 0.53616 0 1 tcp 1000 ------- 0 0.0 2.0 18 33
r 0.544528 2 1 ack 40 ------- 0 2.0 0.0 11 26
r 0.54456 1 0 ack 40 ------- 0 2.0 0.0 10 25
r 0.54536 0 1 tcp 1000 ------- 0 0.0 2.0 19 34
r 0.54616 0 1 tcp 1000 ------- 0 0.0 2.0 20 35
r 0.554528 2 1 ack 40 ------- 0 2.0 0.0 12 27
r 0.55456 1 0 ack 40 ------- 0 2.0 0.0 11 26
r 0.55536 0 1 tcp 1000 ------- 0 0.0 2.0 21 36
r 0.55616 0 1 tcp 1000 ------- 0 0.0 2.0 22 37
r 0.564528 2 1 ack 40 ------- 0 2.0 0.0 13 28
r 0.56456 1 0 ack 40 ------- 0 2.0 0.0 12 27
r 0.56536 0 1 tcp 1000 ------- 0 0.0 2.0 23 38
r 0.56616 0 1 tcp 1000 ------- 0 0.0 2.0 24 39
r 0.574528 2 1 ack 40 ------- 0 2.0 0.0 14 31
r 0.57456 1 0 ack 40 ------- 0 2.0 0.0 13 28
r 0.57536 0 1 tcp 1000 ------- 0 0.0 2.0 25 40
r 0.57616 0 1 tcp 1000 ------- 0 0.0 2.0 26 41
r 0.58456 1 0 ack 40 ------- 0 2.0 0.0 14 31
r 0.58536 1 2 tcp 1000 ------- 0 0.0 2.0 15 29
r 0.58536 0 1 tcp 1000 ------- 0 0.0 2.0 27 42
r 0.58616 0 1 tcp 1000 ------- 0 0.0 2.0 28 43
r 0.59536 1 2 tcp 1000 ------- 0 0.0 2.0 16 30
r 0.59536 0 1 tcp 1000 ------- 0 0.0 2.0 29 44
r 0.59616 0 1 tcp 1000 ------- 0 0.0 2.0 30 45
r 0.60536 1 2 tcp 1000 ------- 0 0.0 2.0 17 32
r 0.61536 1 2 tcp 1000 ------- 0 0.0 2.0 18 33
r 0.62536 1 2 tcp 1000 ------- 0 0.0 2.0 19 34
r 0.63536 1 2 tcp 1000 ------- 0 0.0 2.0 20 35
r 0.63576 2 1 ack 40 ------- 0 2.0 0.0 15 46
r 0.64536 1 2 tcp 1000 ------- 0 0.0 2.0 21 36
r 0.64576 2 1 ack 40 ------- 0 2.0 0.0 16 47
r 0.645792 1 0 ack 40 ------- 0 2.0 0.0 15 46
r 0.65536 1 2 tcp 1000 ------- 0 0.0 2.0 22 37
r 0.65576 2 1 ack 40 ------- 0 2.0 0.0 17 48
r 0.655792 1 0 ack 40 ------- 0 2.0 0.0 16 47
r 0.656592 0 1 tcp 1000 ------- 0 0.0 2.0 31 53
r 0.657392 0 1 tcp 1000 ------- 0 0.0 2.0 32 54
r 0.66536 1 2 tcp 1000 ------- 0 0.0 2.0 23 38
r 0.66576 2 1 ack 40 ------- 0 2.0 0.0 18 49
r 0.665792 1 0 ack 40 ------- 0 2.0 0.0 17 48
r 0.666592 0 1 tcp 1000 ------- 0 0.0 2.0 33 56
r 0.667392 0 1 tcp 1000 ------- 0 0.0 2.0 34 57
r 0.67536 1 2 tcp 1000 ------- 0 0.0 2.0 24 39
r 0.67576 2 1 ack 40 ------- 0 2.0 0.0 19 50
r 0.675792 1 0 ack 40 ------- 0 2.0 0.0 18 49
r 0.676592 0 1 tcp 1000 ------- 0 0.0 2.0 35 59
r 0.677392 0 1 tcp 1000 ------- 0 0.0 2.0 36 60
r 0.68536 1 2 tcp 1000 ------- 0 0.0 2.0 25 40
r 0.68576 2 1 ack 40 ------- 0 2.0 0.0 20 51
r 0.685792 1 0 ack 40 ------- 0 2.0 0.0 19 50
r 0.686592 0 1 tcp 1000 ------- 0 0.0 2.0 37 62
r 0.687392 0 1 tcp 1000 ------- 0 0.0 2.0 38 63
r 0.69536 1 2 tcp 1000 ------- 0 0.0 2.0 26 41
r 0.69576 2 1 ack 40 ------- 0 2.0 0.0 21 52
r 0.695792 1 0 ack 40 ------- 0 2.0 0.0 20 51
r 0.696592 0 1 tcp 1000 ------- 0 0.0 2.0 39 65
r 0.697392 0 1 tcp 1000 ------- 0 0.0 2.0 40 66
r 0.70536 1 2 tcp 1000 ------- 0 0.0 2.0 27 42
r 0.70576 2 1 ack 40 ------- 0 2.0 0.0 22 55
r 0.705792 1 0 ack 40 ------- 0 2.0 0.0 21 52
r 0.706592 0 1 tcp 1000 ------- 0 0.0 2.0 41 68
r 0.707392 0 1 tcp 1000 ------- 0 0.0 2.0 42 69
r 0.71536 1 2 tcp 1000 ------- 0 0.0 2.0 28 43
r 0.71576 2 1 ack 40 ------- 0 2.0 0.0 23 58
r 0.715792 1 0 ack 40 ------- 0 2.0 0.0 22 55
r 0.716592 0 1 tcp 1000 ------- 0 0.0 2.0 43 71
r 0.717392 0 1 tcp 1000 ------- 0 0.0 2.0 44 72
r 0.72536 1 2 tcp 1000 ------- 0 0.0 2.0 29 44
r 0.72576 2 1 ack 40 ------- 0 2.0 0.0 24 61
r 0.725792 1 0 ack 40 ------- 0 2.0 0.0 23 58
r 0.726592 0 1 tcp 1000 ------- 0 0.0 2.0 45 74
r 0.727392 0 1 tcp 1000 ------- 0 0.0 2.0 46 75
r 0.73536 1 2 tcp 1000 ------- 0 0.0 2.0 30 45
r 0.73576 2 1 ack 40 ------- 0 2.0 0.0 25 64
r 0.735792 1 0 ack 40 ------- 0 2.0 0.0 24 61
r 0.736592 0 1 tcp 1000 ------- 0 0.0 2.0 47 77
r 0.737392 0 1 tcp 1000 ------- 0 0.0 2.0 48 78
r 0.74536 1 2 tcp 1000 ------- 0 0.0 2.0 31 53
r 0.74576 2 1 ack 40 ------- 0 2.0 0.0 26 67
r 0.745792 1 0 ack 40 ------- 0 2.0 0.0 25 64
r 0.746592 0 1 tcp 1000 ------- 0 0.0 2.0 49 80
r 0.747392 0 1 tcp 1000 ------- 0 0.0 2.0 50 81
r 0.75536 1 2 tcp 1000 ------- 0 0.0 2.0 32 54
r 0.75576 2 1 ack 40 ------- 0 2.0 0.0 27 70
r 0.755792 1 0 ack 40 ------- 0 2.0 0.0 26 67
r 0.756592 0 1 tcp 1000 ------- 0 0.0 2.0 51 83
r 0.757392 0 1 tcp 1000 ------- 0 0.0 2.0 52 84
r 0.76536 1 2 tcp 1000 ------- 0 0.0 2.0 33 56
r 0.76576 2 1 ack 40 ------- 0 2.0 0.0 28 73
r 0.765792 1 0 ack 40 ------- 0 2.0 0.0 27 70
r 0.766592 0 1 tcp 1000 ------- 0 0.0 2.0 53 86
r 0.767392 0 1 tcp 1000 ------- 0 0.0 2.0 54 87
r 0.77536 1 2 tcp 1000 ------- 0 0.0 2.0 34 57
r 0.77576 2 1 ack 40 ------- 0 2.0 0.0 29 76
r 0.775792 1 0 ack 40 ------- 0 2.0 0.0 28 73
r 0.776592 0 1 tcp 1000 ------- 0 0.0 2.0 55 89
r 0.777392 0 1 tcp 1000 ------- 0 0.0 2.0 56 90
r 0.78536 1 2 tcp 1000 ------- 0 0.0 2.0 35 59
r 0.78576 2 1 ack 40 ------- 0 2.0 0.0 30 79
r 0.785792 1 0 ack 40 ------- 0 2.0 0.0 29 76
r 0.786592 0 1 tcp 1000 ------- 0 0.0 2.0 57 92
r 0.787392 0 1 tcp 1000 ------- 0 0.0 2.0 58 93
r 0.79536 1 2 tcp 1000 ------- 0 0.0 2.0 36 60
r 0.79576 2 1 ack 40 ------- 0 2.0 0.0 31 82
r 0.795792 1 0 ack 40 ------- 0 2.0 0.0 30 79
r 0.796592 0 1 tcp 1000 ------- 0 0.0 2.0 59 95
r 0.797392 0 1 tcp 1000 ------- 0 0.0 2.0 60 96
r 0.80536 1 2 tcp 1000 ------- 0 0.0 2.0 37 62
r 0.80576 2 1 ack 40 ------- 0 2.0 0.0 32 85
r 0.805792 1 0 ack 40 ------- 0 2.0 0.0 31 82
r 0.806592 0 1 tcp 1000 ------- 0 0.0 2.0 61 98
r 0.807392 0 1 tcp 1000 ------- 0 0.0 2.0 62 99
r 0.81536 1 2 tcp 1000 ------- 0 0.0 2.0 38 63
r 0.81576 2 1 ack 40 ------- 0 2.0 0.0 33 88
r 0.815792 1 0 ack 40 ------- 0 2.0 0.0 32 85
r 0.816592 0 1 tcp 1000 ------- 0 0.0 2.0 63 101
r 0.817392 0 1 tcp 1000 ------- 0 0.0 2.0 64 102
r 0.82536 1 2 tcp 1000 ------- 0 0.0 2.0 39 65
r 0.82576 2 1 ack 40 ------- 0 2.0 0.0 34 91
r 0.825792 1 0 ack 40 ------- 0 2.0 0.0 33 88
r 0.826592 0 1 tcp 1000 ------- 0 0.0 2.0 65 104
r 0.827392 0 1 tcp 1000 ------- 0 0.0 2.0 66 105
r 0.83536 1 2 tcp 1000 ------- 0 0.0 2.0 40 66
r 0.83576 2 1 ack 40 ------- 0 2.0 0.0 35 94
r 0.835792 1 0 ack 40 ------- 0 2.0 0.0 34 91
r 0.836592 0 1 tcp 1000 ------- 0 0.0 2.0 67 107
r 0.837392 0 1 tcp 1000 ------- 0 0.0 2.0 68 108
r 0.84536 1 2 tcp 1000 ------- 0 0.0 2.0 41 68
r 0.84576 2 1 ack 40 ------- 0 2.0 0.0 36 97
r 0.845792 1 0 ack 40 ------- 0 2.0 0.0 35 94
r 0.846592 0 1 tcp 1000 ------- 0 0.0 2.0 69 110
r 0.847392 0 1 tcp 1000 ------- 0 0.0 2.0 70 111
r 0.85536 1 2 tcp 1000 ------- 0 0.0 2.0 42 69
r 0.85576 2 1 ack 40 ------- 0 2.0 0.0 37 100
r 0.855792 1 0 ack 40 ------- 0 2.0 0.0 36 97
r 0.856592 0 1 tcp 1000 ------- 0 0.0 2.0 71 113
r 0.857392 0 1 tcp 1000 ------- 0 0.0 2.0 72 114
r 0.86536 1 2 tcp 1000 ------- 0 0.0 2.0 43 71
r 0.86576 2 1 ack 40 ------- 0 2.0 0.0 38 103
r 0.865792 1 0 ack 40 ------- 0 2.0 0.0 37 100
r 0.866592 0 1 tcp 1000 ------- 0 0.0 2.0 73 116
r 0.867392 0 1 tcp 1000 ------- 0 0.0 2.0 74 117
r 0.87536 1 2 tcp 1000 ------- 0 0.0 2.0 44 72
r 0.87576 2 1 ack 40 ------- 0 2.0 0.0 39 106
r 0.875792 1 0 ack 40 ------- 0 2.0 0.0 38 103
r 0.876592 0 1 tcp 1000 ------- 0 0.0 2.0 75 119
r 0.877392 0 1 tcp 1000 ------- 0 0.0 2.0 76 120
r 0.88536 1 2 tcp 1000 ------- 0 0.0 2.0 45 74
r 0.88576 2 1 ack 40 ------- 0 2.0 0.0 40 109
r 0.885792 1 0 ack 40 ------- 0 2.0 0.0 39 106
r 0.886592 0 1 tcp 1000 ------- 0 0.0 2.0 77 122
r 0.887392 0 1 tcp 1000 ------- 0 0.0 2.0 78 123
r 0.89536 1 2 tcp 1000 ------- 0 0.0 2.0 46 75
r 0.89576 2 1 ack 40 ------- 0 2.0 0.0 41 112
r 0.895792 1 0 ack 40 ------- 0 2.0 0.0 40 109
r 0.896592 0 1 tcp 1000 ------- 0 0.0 2.0 79 125
r 0.897392 0 1 tcp 1000 ------- 0 0.0 2.0 80 126
r 0.90536 1 2 tcp 1000 ------- 0 0.0 2.0 47 77
r 0.90576 2 1 ack 40 ------- 0 2.0 0.0 42 115
r 0.905792 1 0 ack 40 ------- 0 2.0 0.0 41 112
r 0.906592 0 1 tcp 1000 ------- 0 0.0 2.0 81 128
r 0.907392 0 1 tcp 1000 ------- 0 0.0 2.0 82 129
r 0.91536 1 2 tcp 1000 ------- 0 0.0 2.0 49 80
r 0.91576 2 1 ack 40 ------- 0 2.0 0.0 43 118
r 0.915792 1 0 ack 40 ------- 0 2.0 0.0 42 115
r 0.916592 0 1 tcp 1000 ------- 0 0.0 2.0 83 131
r 0.917392 0 1 tcp 1000 ------- 0 0.0 2.0 84 132
r 0.92536 1 2 tcp 1000 ------- 0 0.0 2.0 51 83
r 0.92576 2 1 ack 40 ------- 0 2.0 0.0 44 121
r 0.925792 1 0 ack 40 ------- 0 2.0 0.0 43 118
r 0.926592 0 1 tcp 1000 ------- 0 0.0 2.0 85 134
r 0.927392 0 1 tcp 1000 ------- 0 0.0 2.0 86 135
r 0.93536 1 2 tcp 1000 ------- 0 0.0 2.0 53 86
r 0.93576 2 1 ack 40 ------- 0 2.0 0.0 45 124
r 0.935792 1 0 ack 40 ------- 0 2.0 0.0 44 121
r 0.936592 0 1 tcp 1000 ------- 0 0.0 2.0 87 137
r 0.937392 0 1 tcp 1000 ------- 0 0.0 2.0 88 138
r 0.94536 1 2 tcp 1000 ------- 0 0.0 2.0 55 89
r 0.94576 2 1 ack 40 ------- 0 2.0 0.0 46 127
r 0.945792 1 0 ack 40 ------- 0 2.0 0.0 45 124
r 0.946592 0 1 tcp 1000 ------- 0 0.0 2.0 89 140
r 0.947392 0 1 tcp 1000 ------- 0 0.0 2.0 90 141
r 0.95536 1 2 tcp 1000 ------- 0 0.0 2.0 57 92
r 0.95576 2 1 ack 40 ------- 0 2.0 0.0 47 130
r 0.955792 1 0 ack 40 ------- 0 2.0 0.0 46 127
r 0.956592 0 1 tcp 1000 ------- 0 0.0 2.0 91 143
r 0.957392 0 1 tcp 1000 ------- 0 0.0 2.0 92 144
r 0.96536 1 2 tcp 1000 ------- 0 0.0 2.0 59 95
r 0.96576 2 1 ack 40 ------- 0 2.0 0.0 47 133
r 0.965792 1 0 ack 40 ------- 0 2.0 0.0 47 130
r 0.966592 0 1 tcp 1000 ------- 0 0.0 2.0 93 146
r 0.967392 0 1 tcp 1000 ------- 0 0.0 2.0 94 147
r 0.97536 1 2 tcp 1000 ------- 0 0.0 2.0 61 98
r 0.97576 2 1 ack 40 ------- 0 2.0 0.0 47 136
r 0.975792 1 0 ack 40 ------- 0 2.0 0.0 47 133
r 0.976592 0 1 tcp 1000 ------- 0 0.0 2.0 95 149
r 0.977392 0 1 tcp 1000 ------- 0 0.0 2.0 96 150
r 0.98536 1 2 tcp 1000 ------- 0 0.0 2.0 63 101
r 0.98576 2 1 ack 40 ------- 0 2.0 0.0 47 139
r 0.985792 1 0 ack 40 ------- 0 2.0 0.0 47 136
r 0.986592 0 1 tcp 1000 ------- 0 0.0 2.0 97 152
r 0.99536 1 2 tcp 1000 ------- 0 0.0 2.0 65 104
r 0.99576 2 1 ack 40 ------- 0 2.0 0.0 47 142
r 0.995792 1 0 ack 40 ------- 0 2.0 0.0 47 139
r 0.996592 0 1 tcp 1000 ------- 0 0.0 2.0 98 154
r 1.00536 1 2 tcp 1000 ------- 0 0.0 2.0 67 107
r 1.00576 2 1 ack 40 ------- 0 2.0 0.0 47 145
r 1.005792 1 0 ack 40 ------- 0 2.0 0.0 47 142
r 1.006592 0 1 tcp 1000 ---A--- 0 0.0 2.0 48 156
r 1.01536 1 2 tcp 1000 ------- 0 0.0 2.0 69 110
r 1.01576 2 1 ack 40 ------- 0 2.0 0.0 47 148
r 1.015792 1 0 ack 40 ------- 0 2.0 0.0 47 145
r 1.02536 1 2 tcp 1000 ------- 0 0.0 2.0 71 113
r 1.02576 2 1 ack 40 ------- 0 2.0 0.0 47 151
r 1.025792 1 0 ack 40 ------- 0 2.0 0.0 47 148
r 1.03536 1 2 tcp 1000 ------- 0 0.0 2.0 73 116
r 1.03576 2 1 ack 40 ------- 0 2.0 0.0 47 153
r 1.035792 1 0 ack 40 ------- 0 2.0 0.0 47 151
r 1.04536 1 2 tcp 1000 ------- 0 0.0 2.0 75 119
r 1.04576 2 1 ack 40 ------- 0 2.0 0.0 47 155
r 1.045792 1 0 ack 40 ------- 0 2.0 0.0 47 153
r 1.05536 1 2 tcp 1000 ------- 0 0.0 2.0 77 122
r 1.05576 2 1 ack 40 ------- 0 2.0 0.0 47 157
r 1.055792 1 0 ack 40 ------- 0 2.0 0.0 47 155
r 1.06536 1 2 tcp 1000 ------- 0 0.0 2.0 79 125
r 1.06576 2 1 ack 40 ------- 0 2.0 0.0 47 158
r 1.065792 1 0 ack 40 ------- 0 2.0 0.0 47 157
r 1.07536 1 2 tcp 1000 ------- 0 0.0 2.0 81 128
r 1.07576 2 1 ack 40 ------- 0 2.0 0.0 47 159
r 1.075792 1 0 ack 40 ------- 0 2.0 0.0 47 158
r 1.08536 1 2 tcp 1000 ------- 0 0.0 2.0 83 131
r 1.08576 2 1 ack 40 ------- 0 2.0 0.0 47 160
r 1.085792 1 0 ack 40 ------- 0 2.0 0.0 47 159
r 1.09536 1 2 tcp 1000 ------- 0 0.0 2.0 85 134
r 1.09576 2 1 ack 40 ------- 0 2.0 0.0 47 161
r 1.095792 1 0 ack 40 ------- 0 2.0 0.0 47 160
r 1.10536 1 2 tcp 1000 ------- 0 0.0 2.0 87 137
r 1.10576 2 1 ack 40 ------- 0 2.0 0.0 47 162
r 1.105792 1 0 ack 40 ------- 0 2.0 0.0 47 161
r 1.11536 1 2 tcp 1000 ------- 0 0.0 2.0 89 140
r 1.11576 2 1 ack 40 ------- 0 2.0 0.0 47 163
r 1.115792 1 0 ack 40 ------- 0 2.0 0.0 47 162
r 1.12536 1 2 tcp 1000 ------- 0 0.0 2.0 91 143
r 1.12576 2 1 ack 40 ------- 0 2.0 0.0 47 164
r 1.125792 1 0 ack 40 ------- 0 2.0 0.0 47 163
r 1.13536 1 2 tcp 1000 ------- 0 0.0 2.0 93 146
r 1.13576 2 1 ack 40 ------- 0 2.0 0.0 47 165
r 1.135792 1 0 ack 40 ------- 0 2.0 0.0 47 164
r 1.14536 1 2 tcp 1000 ------- 0 0.0 2.0 95 149
r 1.14576 2 1 ack 40 ------- 0 2.0 0.0 47 166
r 1.145792 1 0 ack 40 ------- 0 2.0 0.0 47 165
r 1.15536 1 2 tcp 1000 ------- 0 0.0 2.0 97 152
r 1.15576 2 1 ack 40 ------- 0 2.0 0.0 47 167
r 1.155792 1 0 ack 40 ------- 0 2.0 0.0 47 166
r 1.16536 1 2 tcp 1000 ------- 0 0.0 2.0 98 154
r 1.16576 2 1 ack 40 ------- 0 2.0 0.0 47 168
r 1.165792 1 0 ack 40 ------- 0 2.0 0.0 47 167
r 1.17536 1 2 tcp 1000 ---A--- 0 0.0 2.0 48 156
r 1.17576 2 1 ack 40 ------- 0 2.0 0.0 47 169
r 1.175792 1 0 ack 40 ------- 0 2.0 0.0 47 168
r 1.18576 2 1 ack 40 ------- 0 2.0 0.0 47 170
r 1.185792 1 0 ack 40 ------- 0 2.0 0.0 47 169
r 1.19576 2 1 ack 40 ------- 0 2.0 0.0 47 171
r 1.195792 1 0 ack 40 ------- 0 2.0 0.0 47 170
r 1.20576 2 1 ack 40 ------- 0 2.0 0.0 47 172
r 1.205792 1 0 ack 40 ------- 0 2.0 0.0 47 171
r 1.21576 2 1 ack 40 ------- 0 2.0 0.0 47 173
r 1.215792 1 0 ack 40 ------- 0 2.0 0.0 47 172
r 1.22576 2 1 ack 40 ------- 0 2.0 0.0 49 174
r 1.225792 1 0 ack 40 ------- 0 2.0 0.0 47 173
r 1.235792 1 0 ack 40 ------- 0 2.0 0.0 49 174
r 1.506592 0 1 tcp 1000 ---A--- 0 0.0 2.0 50 175
r 1.566592 1 2 tcp 1000 ---A--- 0 0.0 2.0 50 175
r 1.616992 2 1 ack 40 ------- 0 2.0 0.0 51 176
r 1.627024 1 0 ack 40 ------- 0 2.0 0.0 51 176
r 1.637824 0 1 tcp 1000 ------- 0 0.0 2.0 52 177
r 1.638624 0 1 tcp 1000 ------- 0 0.0 2.0 53 178
r 1.697824 1 2 tcp 1000 ------- 0 0.0 2.0 52 177
r 1.707824 1 2 tcp 1000 ------- 0 0.0 2.0 53 178
r 1.748224 2 1 ack 40 ------- 0 2.0 0.0 53 179
r 1.758224 2 1 ack 40 ------- 0 2.0 0.0 53 180
r 1.758256 1 0 ack 40 ------- 0 2.0 0.0 53 179
r 1.768256 1 0 ack 40 ------- 0 2.0 0.0 53 180
r 1.769056 0 1 tcp 1000 ------- 0 0.0 2.0 54 181
r 1.769856 0 1 tcp 1000 ------- 0 0.0 2.0 55 182
r 1.770656 0 1 tcp 1000 ------- 0 0.0 2.0 56 183
r 1.779056 0 1 tcp 1000 ------- 0 0.0 2.0 57 184
r 1.829056 1 2 tcp 1000 ------- 0 0.0 2.0 54 181
r 1.839056 1 2 tcp 1000 ------- 0 0.0 2.0 55 182
r 1.849056 1 2 tcp 1000 ------- 0 0.0 2.0 56 183
r 1.859056 1 2 tcp 1000 ------- 0 0.0 2.0 57 184
r 1.879456 2 1 ack 40 ------- 0 2.0 0.0 55 185
r 1.889456 2 1 ack 40 ------- 0 2.0 0.0 55 186
r 1.889488 1 0 ack 40 ------- 0 2.0 0.0 55 185
r 1.899456 2 1 ack 40 ------- 0 2.0 0.0 57 187
r 1.899488 1 0 ack 40 ------- 0 2.0 0.0 55 186
r 1.900288 0 1 tcp 1000 ------- 0 0.0 2.0 58 189
r 1.901088 0 1 tcp 1000 ------- 0 0.0 2.0 59 190
r 1.909456 2 1 ack 40 ------- 0 2.0 0.0 57 188
r 1.909488 1 0 ack 40 ------- 0 2.0 0.0 57 187
r 1.910288 0 1 tcp 1000 ------- 0 0.0 2.0 60 191
r 1.919488 1 0 ack 40 ------- 0 2.0 0.0 57 188
r 1.920288 0 1 tcp 1000 ------- 0 0.0 2.0 61 192
r 1.921088 0 1 tcp 1000 ------- 0 0.0 2.0 62 193
r 1.930288 0 1 tcp 1000 ------- 0 0.0 2.0 63 194
r 1.960288 1 2 tcp 1000 ------- 0 0.0 2.0 58 189
r 1.970288 1 2 tcp 1000 ------- 0 0.0 2.0 59 190
r 1.980288 1 2 tcp 1000 ------- 0 0.0 2.0 60 191
r 1.990288 1 2 tcp 1000 ------- 0 0.0 2.0 61 192
r 2.000288 1 2 tcp 1000 ------- 0 0.0 2.0 62 193
r 2.010288 1 2 tcp 1000 ------- 0 0.0 2.0 63 194
r 2.010688 2 1 ack 40 ------- 0 2.0 0.0 59 195
r 2.020688 2 1 ack 40 ------- 0 2.0 0.0 59 196
r 2.02072 1 0 ack 40 ------- 0 2.0 0.0 59 195
r 2.030688 2 1 ack 40 ------- 0 2.0 0.0 61 197
r 2.03072 1 0 ack 40 ------- 0 2.0 0.0 59 196
r 2.03152 0 1 tcp 1000 ------- 0 0.0 2.0 64 201
r 2.03232 0 1 tcp 1000 ------- 0 0.0 2.0 65 202
r 2.040688 2 1 ack 40 ------- 0 2.0 0.0 61 198
r 2.04072 1 0 ack 40 ------- 0 2.0 0.0 61 197
r 2.04152 0 1 tcp 1000 ------- 0 0.0 2.0 66 203
r 2.050688 2 1 ack 40 ------- 0 2.0 0.0 63 199
r 2.05072 1 0 ack 40 ------- 0 2.0 0.0 61 198
r 2.05152 0 1 tcp 1000 ------- 0 0.0 2.0 67 204
r 2.05232 0 1 tcp 1000 ------- 0 0.0 2.0 68 205
r 2.060688 2 1 ack 40 ------- 0 2.0 0.0 63 200
r 2.06072 1 0 ack 40 ------- 0 2.0 0.0 63 199
r 2.06152 0 1 tcp 1000 ------- 0 0.0 2.0 69 206
r 2.07072 1 0 ack 40 ------- 0 2.0 0.0 63 200
r 2.07152 0 1 tcp 1000 ------- 0 0.0 2.0 70 207
r 2.07232 0 1 tcp 1000 ------- 0 0.0 2.0 71 208
r 2.08152 0 1 tcp 1000 ------- 0 0.0 2.0 72 209
r 2.09152 1 2 tcp 1000 ------- 0 0.0 2.0 64 201
r 2.10152 1 2 tcp 1000 ------- 0 0.0 2.0 65 202
r 2.11152 1 2 tcp 1000 ------- 0 0.0 2.0 66 203
r 2.12152 1 2 tcp 1000 ------- 0 0.0 2.0 67 204
r 2.13152 1 2 tcp 1000 ------- 0 0.0 2.0 68 205
r 2.14152 1 2 tcp 1000 ------- 0 0.0 2.0 69 206
r 2.14192 2 1 ack 40 ------- 0 2.0 0.0 65 210
r 2.15152 1 2 tcp 1000 ------- 0 0.0 2.0 70 207
r 2.15192 2 1 ack 40 ------- 0 2.0 0.0 65 211
r 2.151952 1 0 ack 40 ------- 0 2.0 0.0 65 210
r 2.16152 1 2 tcp 1000 ------- 0 0.0 2.0 71 208
r 2.16192 2 1 ack 40 ------- 0 2.0 0.0 67 212
r 2.161952 1 0 ack 40 ------- 0 2.0 0.0 65 211
r 2.162752 0 1 tcp 1000 ------- 0 0.0 2.0 73 217
r 2.163552 0 1 tcp 1000 ------- 0 0.0 2.0 74 218
r 2.17152 1 2 tcp 1000 ------- 0 0.0 2.0 72 209
r 2.17192 2 1 ack 40 ------- 0 2.0 0.0 67 213
r 2.171952 1 0 ack 40 ------- 0 2.0 0.0 67 212
r 2.172752 0 1 tcp 1000 ------- 0 0.0 2.0 75 220
r 2.18192 2 1 ack 40 ------- 0 2.0 0.0 69 214
r 2.181952 1 0 ack 40 ------- 0 2.0 0.0 67 213
r 2.182752 0 1 tcp 1000 ------- 0 0.0 2.0 76 222
r 2.183552 0 1 tcp 1000 ------- 0 0.0 2.0 77 223
r 2.19192 2 1 ack 40 ------- 0 2.0 0.0 69 215
r 2.191952 1 0 ack 40 ------- 0 2.0 0.0 69 214
r 2.192752 0 1 tcp 1000 ------- 0 0.0 2.0 78 224
r 2.20192 2 1 ack 40 ------- 0 2.0 0.0 71 216
r 2.201952 1 0 ack 40 ------- 0 2.0 0.0 69 215
r 2.202752 0 1 tcp 1000 ------- 0 0.0 2.0 79 225
r 2.203552 0 1 tcp 1000 ------- 0 0.0 2.0 80 226
r 2.21192 2 1 ack 40 ------- 0 2.0 0.0 71 219
r 2.211952 1 0 ack 40 ------- 0 2.0 0.0 71 216
r 2.212752 0 1 tcp 1000 ------- 0 0.0 2.0 81 227
r 2.22192 2 1 ack 40 ------- 0 2.0 0.0 73 221
r 2.221952 1 0 ack 40 ------- 0 2.0 0.0 71 219
r 2.222752 0 1 tcp 1000 ------- 0 0.0 2.0 82 228
r 2.222752 1 2 tcp 1000 ------- 0 0.0 2.0 73 217
r 2.223552 0 1 tcp 1000 ------- 0 0.0 2.0 83 229
r 2.231952 1 0 ack 40 ------- 0 2.0 0.0 73 221
r 2.232752 0 1 tcp 1000 ------- 0 0.0 2.0 84 230
r 2.232752 1 2 tcp 1000 ------- 0 0.0 2.0 74 218
r 2.242752 0 1 tcp 1000 ------- 0 0.0 2.0 85 232
r 2.242752 1 2 tcp 1000 ------- 0 0.0 2.0 75 220
r 2.252752 1 2 tcp 1000 ------- 0 0.0 2.0 76 222
r 2.262752 1 2 tcp 1000 ------- 0 0.0 2.0 77 223
r 2.272752 1 2 tcp 1000 ------- 0 0.0 2.0 78 224
r 2.273152 2 1 ack 40 ------- 0 2.0 0.0 73 231
r 2.282752 1 2 tcp 1000 ------- 0 0.0 2.0 79 225
r 2.283152 2 1 ack 40 ------- 0 2.0 0.0 75 233
r 2.283184 1 0 ack 40 ------- 0 2.0 0.0 73 231
r 2.292752 1 2 tcp 1000 ------- 0 0.0 2.0 80 226
r 2.293152 2 1 ack 40 ------- 0 2.0 0.0 75 234
r 2.293184 1 0 ack 40 ------- 0 2.0 0.0 75 233
r 2.293984 0 1 tcp 1000 ------- 0 0.0 2.0 86 239
r 2.302752 1 2 tcp 1000 ------- 0 0.0 2.0 81 227
r 2.303152 2 1 ack 40 ------- 0 2.0 0.0 77 235
r 2.303184 1 0 ack 40 ------- 0 2.0 0.0 75 234
r 2.303984 0 1 tcp 1000 ------- 0 0.0 2.0 87 241
r 2.312752 1 2 tcp 1000 ------- 0 0.0 2.0 82 228
r 2.313152 2 1 ack 40 ------- 0 2.0 0.0 77 236
r 2.313184 1 0 ack 40 ------- 0 2.0 0.0 77 235
r 2.313984 0 1 tcp 1000 ------- 0 0.0 2.0 88 243
r 2.322752 1 2 tcp 1000 ------- 0 0.0 2.0 83 229
r 2.323152 2 1 ack 40 ------- 0 2.0 0.0 79 237
r 2.323184 1 0 ack 40 ------- 0 2.0 0.0 77 236
r 2.323984 0 1 tcp 1000 ------- 0 0.0 2.0 89 245
r 2.332752 1 2 tcp 1000 ------- 0 0.0 2.0 84 230
r 2.333152 2 1 ack 40 ------- 0 2.0 0.0 79 238
r 2.333184 1 0 ack 40 ------- 0 2.0 0.0 79 237
r 2.333984 0 1 tcp 1000 ------- 0 0.0 2.0 90 247
r 2.342752 1 2 tcp 1000 ------- 0 0.0 2.0 85 232
r 2.343152 2 1 ack 40 ------- 0 2.0 0.0 81 240
r 2.343184 1 0 ack 40 ------- 0 2.0 0.0 79 238
r 2.343984 0 1 tcp 1000 ------- 0 0.0 2.0 91 249
r 2.353152 2 1 ack 40 ------- 0 2.0 0.0 81 242
r 2.353184 1 0 ack 40 ------- 0 2.0 0.0 81 240
r 2.353984 0 1 tcp 1000 ------- 0 0.0 2.0 92 251
r 2.353984 1 2 tcp 1000 ------- 0 0.0 2.0 86 239
r 2.363152 2 1 ack 40 ------- 0 2.0 0.0 83 244
r 2.363184 1 0 ack 40 ------- 0 2.0 0.0 81 242
r 2.363984 0 1 tcp 1000 ------- 0 0.0 2.0 93 252
r 2.363984 1 2 tcp 1000 ------- 0 0.0 2.0 87 241
r 2.373152 2 1 ack 40 ------- 0 2.0 0.0 83 246
r 2.373184 1 0 ack 40 ------- 0 2.0 0.0 83 244
r 2.373984 0 1 tcp 1000 ------- 0 0.0 2.0 94 254
r 2.373984 1 2 tcp 1000 ------- 0 0.0 2.0 88 243
r 2.383152 2 1 ack 40 ------- 0 2.0 0.0 85 248
r 2.383184 1 0 ack 40 ------- 0 2.0 0.0 83 246
r 2.383984 0 1 tcp 1000 ------- 0 0.0 2.0 95 256
r 2.383984 1 2 tcp 1000 ------- 0 0.0 2.0 89 245
r 2.393152 2 1 ack 40 ------- 0 2.0 0.0 85 250
r 2.393184 1 0 ack 40 ------- 0 2.0 0.0 85 248
r 2.393984 0 1 tcp 1000 ------- 0 0.0 2.0 96 258
r 2.393984 1 2 tcp 1000 ------- 0 0.0 2.0 90 247
r 2.403184 1 0 ack 40 ------- 0 2.0 0.0 85 250
r 2.403984 0 1 tcp 1000 ------- 0 0.0 2.0 97 260
r 2.403984 1 2 tcp 1000 ------- 0 0.0 2.0 91 249
r 2.404384 2 1 ack 40 ------- 0 2.0 0.0 87 253
r 2.413984 0 1 tcp 1000 ------- 0 0.0 2.0 98 262
r 2.413984 1 2 tcp 1000 ------- 0 0.0 2.0 92 251
r 2.414384 2 1 ack 40 ------- 0 2.0 0.0 87 255
r 2.414416 1 0 ack 40 ------- 0 2.0 0.0 87 253
r 2.423984 1 2 tcp 1000 ------- 0 0.0 2.0 93 252
r 2.424384 2 1 ack 40 ------- 0 2.0 0.0 89 257
r 2.424416 1 0 ack 40 ------- 0 2.0 0.0 87 255
r 2.425216 0 1 tcp 1000 ------- 0 0.0 2.0 99 265
r 2.433984 1 2 tcp 1000 ------- 0 0.0 2.0 94 254
r 2.434384 2 1 ack 40 ------- 0 2.0 0.0 89 259
r 2.434416 1 0 ack 40 ------- 0 2.0 0.0 89 257
r 2.435216 0 1 tcp 1000 ------- 0 0.0 2.0 100 267
r 2.443984 1 2 tcp 1000 ------- 0 0.0 2.0 95 256
r 2.444384 2 1 ack 40 ------- 0 2.0 0.0 91 261
r 2.444416 1 0 ack 40 ------- 0 2.0 0.0 89 259
r 2.445216 0 1 tcp 1000 ------- 0 0.0 2.0 101 269
r 2.453984 1 2 tcp 1000 ------- 0 0.0 2.0 96 258
r 2.454384 2 1 ack 40 ------- 0 2.0 0.0 91 263
r 2.454416 1 0 ack 40 ------- 0 2.0 0.0 91 261
r 2.455216 0 1 tcp 1000 ------- 0 0.0 2.0 102 271
r 2.463984 1 2 tcp 1000 ------- 0 0.0 2.0 97 260
r 2.464384 2 1 ack 40 ------- 0 2.0 0.0 93 264
r 2.464416 1 0 ack 40 ------- 0 2.0 0.0 91 263
r 2.465216 0 1 tcp 1000 ------- 0 0.0 2.0 103 273
r 2.473984 1 2 tcp 1000 ------- 0 0.0 2.0 98 262
r 2.474384 2 1 ack 40 ------- 0 2.0 0.0 93 266
r 2.474416 1 0 ack 40 ------- 0 2.0 0.0 93 264
r 2.475216 0 1 tcp 1000 ------- 0 0.0 2.0 104 275
r 2.484384 2 1 ack 40 ------- 0 2.0 0.0 95 268
r 2.484416 1 0 ack 40 ------- 0 2.0 0.0 93 266
r 2.485216 0 1 tcp 1000 ------- 0 0.0 2.0 105 277
r 2.485216 1 2 tcp 1000 ------- 0 0.0 2.0 99 265
r 2.494384 2 1 ack 40 ------- 0 2.0 0.0 95 270
r 2.494416 1 0 ack 40 ------- 0 2.0 0.0 95 268
r 2.495216 0 1 tcp 1000 ------- 0 0.0 2.0 106 278
r 2.495216 1 2 tcp 1000 ------- 0 0.0 2.0 100 267
r 2.504384 2 1 ack 40 ------- 0 2.0 0.0 98 272
r 2.504416 1 0 ack 40 ------- 0 2.0 0.0 95 270
r 2.505216 0 1 tcp 1000 ------- 0 0.0 2.0 107 280
r 2.505216 1 2 tcp 1000 ------- 0 0.0 2.0 101 269
r 2.514384 2 1 ack 40 ------- 0 2.0 0.0 98 274
r 2.514416 1 0 ack 40 ------- 0 2.0 0.0 98 272
r 2.515216 0 1 tcp 1000 ------- 0 0.0 2.0 108 282
r 2.515216 1 2 tcp 1000 ------- 0 0.0 2.0 102 271
r 2.524384 2 1 ack 40 ------- 0 2.0 0.0 98 276
r 2.524416 1 0 ack 40 ------- 0 2.0 0.0 98 274
r 2.525216 0 1 tcp 1000 ------- 0 0.0 2.0 109 284
r 2.525216 1 2 tcp 1000 ------- 0 0.0 2.0 103 273
r 2.526016 0 1 tcp 1000 ------- 0 0.0 2.0 110 285
r 2.526816 0 1 tcp 1000 ------- 0 0.0 2.0 111 286
r 2.534416 1 0 ack 40 ------- 0 2.0 0.0 98 276
r 2.535216 0 1 tcp 1000 ------- 0 0.0 2.0 112 288
r 2.535216 1 2 tcp 1000 ------- 0 0.0 2.0 104 275
r 2.535616 2 1 ack 40 ------- 0 2.0 0.0 99 279
r 2.545216 0 1 tcp 1000 ------- 0 0.0 2.0 113 290
r 2.545216 1 2 tcp 1000 ------- 0 0.0 2.0 105 277
r 2.545616 2 1 ack 40 ------- 0 2.0 0.0 100 281
r 2.545648 1 0 ack 40 ------- 0 2.0 0.0 99 279
r 2.555216 1 2 tcp 1000 ------- 0 0.0 2.0 106 278
r 2.555616 2 1 ack 40 ------- 0 2.0 0.0 101 283
r 2.555648 1 0 ack 40 ------- 0 2.0 0.0 100 281
r 2.565216 1 2 tcp 1000 ------- 0 0.0 2.0 107 280
r 2.565616 2 1 ack 40 ------- 0 2.0 0.0 102 287
r 2.565648 1 0 ack 40 ------- 0 2.0 0.0 101 283
r 2.575216 1 2 tcp 1000 ------- 0 0.0 2.0 108 282
r 2.575616 2 1 ack 40 ------- 0 2.0 0.0 103 289
r 2.575648 1 0 ack 40 ------- 0 2.0 0.0 102 287
r 2.576448 0 1 tcp 1000 ------- 0 0.0 2.0 114 295
r 2.585216 1 2 tcp 1000 ------- 0 0.0 2.0 109 284
r 2.585616 2 1 ack 40 ------- 0 2.0 0.0 104 291
r 2.585648 1 0 ack 40 ------- 0 2.0 0.0 103 289
r 2.586448 0 1 tcp 1000 ------- 0 0.0 2.0 115 297
r 2.595216 1 2 tcp 1000 ------- 0 0.0 2.0 110 285
r 2.595616 2 1 ack 40 ------- 0 2.0 0.0 105 292
r 2.595648 1 0 ack 40 ------- 0 2.0 0.0 104 291
r 2.596448 0 1 tcp 1000 ------- 0 0.0 2.0 116 299
r 2.605216 1 2 tcp 1000 ------- 0 0.0 2.0 111 286
r 2.605616 2 1 ack 40 ------- 0 2.0 0.0 106 293
r 2.605648 1 0 ack 40 ------- 0 2.0 0.0 105 292
r 2.606448 0 1 tcp 1000 ------- 0 0.0 2.0 117 301
r 2.615216 1 2 tcp 1000 ------- 0 0.0 2.0 112 288
r 2.615616 2 1 ack 40 ------- 0 2.0 0.0 107 294
r 2.615648 1 0 ack 40 ------- 0 2.0 0.0 106 293
r 2.616448 0 1 tcp 1000 ------- 0 0.0 2.0 118 303
r 2.625216 1 2 tcp 1000 ------- 0 0.0 2.0 113 290
r 2.625616 2 1 ack 40 ------- 0 2.0 0.0 108 296
r 2.625648 1 0 ack 40 ------- 0 2.0 0.0 107 294
r 2.626448 0 1 tcp 1000 ------- 0 0.0 2.0 119 305
r 2.635616 2 1 ack 40 ------- 0 2.0 0.0 109 298
r 2.635648 1 0 ack 40 ------- 0 2.0 0.0 108 296
r 2.636448 0 1 tcp 1000 ------- 0 0.0 2.0 120 307
r 2.636448 1 2 tcp 1000 ------- 0 0.0 2.0 114 295
r 2.645616 2 1 ack 40 ------- 0 2.0 0.0 110 300
r 2.645648 1 0 ack 40 ------- 0 2.0 0.0 109 298
r 2.646448 0 1 tcp 1000 ------- 0 0.0 2.0 121 308
r 2.646448 1 2 tcp 1000 ------- 0 0.0 2.0 115 297
r 2.655616 2 1 ack 40 ------- 0 2.0 0.0 111 302
r 2.655648 1 0 ack 40 ------- 0 2.0 0.0 110 300
r 2.656448 0 1 tcp 1000 ------- 0 0.0 2.0 122 310
r 2.656448 1 2 tcp 1000 ------- 0 0.0 2.0 116 299
r 2.665616 2 1 ack 40 ------- 0 2.0 0.0 112 304
r 2.665648 1 0 ack 40 ------- 0 2.0 0.0 111 302
r 2.666448 0 1 tcp 1000 ------- 0 0.0 2.0 123 312
r 2.666448 1 2 tcp 1000 ------- 0 0.0 2.0 117 301
r 2.675616 2 1 ack 40 ------- 0 2.0 0.0 113 306
r 2.675648 1 0 ack 40 ------- 0 2.0 0.0 112 304
r 2.676448 0 1 tcp 1000 ------- 0 0.0 2.0 124 314
r 2.676448 1 2 tcp 1000 ------- 0 0.0 2.0 118 303
r 2.677248 0 1 tcp 1000 ------- 0 0.0 2.0 125 315
r 2.685648 1 0 ack 40 ------- 0 2.0 0.0 113 306
r 2.686448 0 1 tcp 1000 ------- 0 0.0 2.0 126 317
r 2.686448 1 2 tcp 1000 ------- 0 0.0 2.0 119 305
r 2.686848 2 1 ack 40 ------- 0 2.0 0.0 114 309
r 2.696448 0 1 tcp 1000 ------- 0 0.0 2.0 127 319
r 2.696448 1 2 tcp 1000 ------- 0 0.0 2.0 120 307
r 2.696848 2 1 ack 40 ------- 0 2.0 0.0 115 311
r 2.69688 1 0 ack 40 ------- 0 2.0 0.0 114 309
r 2.706448 1 2 tcp 1000 ------- 0 0.0 2.0 121 308
r 2.706848 2 1 ack 40 ------- 0 2.0 0.0 116 313
r 2.70688 1 0 ack 40 ------- 0 2.0 0.0 115 311
r 2.70768 0 1 tcp 1000 ------- 0 0.0 2.0 128 322
r 2.716448 1 2 tcp 1000 ------- 0 0.0 2.0 122 310
r 2.716848 2 1 ack 40 ------- 0 2.0 0.0 117 316
r 2.71688 1 0 ack 40 ------- 0 2.0 0.0 116 313
r 2.71768 0 1 tcp 1000 ------- 0 0.0 2.0 129 324
r 2.726448 1 2 tcp 1000 ------- 0 0.0 2.0 123 312
r 2.726848 2 1 ack 40 ------- 0 2.0 0.0 118 318
r 2.72688 1 0 ack 40 ------- 0 2.0 0.0 117 316
r 2.72768 0 1 tcp 1000 ------- 0 0.0 2.0 130 326
r 2.736448 1 2 tcp 1000 ------- 0 0.0 2.0 124 314
r 2.736848 2 1 ack 40 ------- 0 2.0 0.0 119 320
r 2.73688 1 0 ack 40 ------- 0 2.0 0.0 118 318
r 2.73768 0 1 tcp 1000 ------- 0 0.0 2.0 131 328
r 2.746448 1 2 tcp 1000 ------- 0 0.0 2.0 125 315
r 2.746848 2 1 ack 40 ------- 0 2.0 0.0 120 321
r 2.74688 1 0 ack 40 ------- 0 2.0 0.0 119 320
r 2.74768 0 1 tcp 1000 ------- 0 0.0 2.0 132 330
r 2.756448 1 2 tcp 1000 ------- 0 0.0 2.0 126 317
r 2.756848 2 1 ack 40 ------- 0 2.0 0.0 121 323
r 2.75688 1 0 ack 40 ------- 0 2.0 0.0 120 321
r 2.75768 0 1 tcp 1000 ------- 0 0.0 2.0 133 332
r 2.766448 1 2 tcp 1000 ------- 0 0.0 2.0 127 319
r 2.766848 2 1 ack 40 ------- 0 2.0 0.0 122 325
r 2.76688 1 0 ack 40 ------- 0 2.0 0.0 121 323
r 2.76768 0 1 tcp 1000 ------- 0 0.0 2.0 134 334
r 2.776448 1 2 tcp 1000 ------- 0 0.0 2.0 128 322
r 2.776848 2 1 ack 40 ------- 0 2.0 0.0 123 327