+ 0 0 1 tcp 40 ------- 0 0.0 2.0 0 0
- 0 0 1 tcp 40 ------- 0 0.0 2.0 0 0
r 0.010032 0 1 tcp 40 ------- 0 0.0 2.0 0 0
+ 0.010032 1 2 tcp 40 ------- 0 0.0 2.0 0 0
- 0.010032 1 2 tcp 40 ------- 0 0.0 2.0 0 0
r 0.060432 1 2 tcp 40 ------- 0 0.0 2.0 0 0
+ 0.060432 2 1 ack 40 ------- 0 2.0 0.0 0 1
- 0.060432 2 1 ack 40 ------- 0 2.0 0.0 0 1
r 0.110832 2 1 ack 40 ------- 0 2.0 0.0 0 1
+ 0.110832 1 0 ack 40 ------- 0 2.0 0.0 0 1
- 0.110832 1 0 ack 40 ------- 0 2.0 0.0 0 1
r 0.120864 1 0 ack 40 ------- 0 2.0 0.0 0 1
+ 0.120864 0 1 tcp 1000 ------- 0 0.0 2.0 1 2
- 0.120864 0 1 tcp 1000 ------- 0 0.0 2.0 1 2
+ 0.120864 0 1 tcp 1000 ------- 0 0.0 2.0 2 3
- 0.121664 0 1 tcp 1000 ------- 0 0.0 2.0 2 3
r 0.131664 0 1 tcp 1000 ------- 0 0.0 2.0 1 2
+ 0.131664 1 2 tcp 1000 ------- 0 0.0 2.0 1 2
- 0.131664 1 2 tcp 1000 ------- 0 0.0 2.0 1 2
r 0.132464 0 1 tcp 1000 ------- 0 0.0 2.0 2 3
+ 0.132464 1 2 tcp 1000 ------- 0 0.0 2.0 2 3
- 0.141664 1 2 tcp 1000 ------- 0 0.0 2.0 2 3
r 0.191664 1 2 tcp 1000 ------- 0 0.0 2.0 1 2
+ 0.191664 2 1 ack 40 ------- 0 2.0 0.0 1 4
- 0.191664 2 1 ack 40 ------- 0 2.0 0.0 1 4
r 0.201664 1 2 tcp 1000 ------- 0 0.0 2.0 2 3
+ 0.201664 2 1 ack 40 ------- 0 2.0 0.0 2 5
- 0.201664 2 1 ack 40 ------- 0 2.0 0.0 2 5
r 0.242064 2 1 ack 40 ------- 0 2.0 0.0 1 4
+ 0.242064 1 0 ack 40 ------- 0 2.0 0.0 1 4
- 0.242064 1 0 ack 40 ------- 0 2.0 0.0 1 4
r 0.252064 2 1 ack 40 ------- 0 2.0 0.0 2 5
+ 0.252064 1 0 ack 40 ------- 0 2.0 0.0 2 5
- 0.252064 1 0 ack 40 ------- 0 2.0 0.0 2 5
r 0.252096 1 0 ack 40 ------- 0 2.0 0.0 1 4
+ 0.252096 0 1 tcp 1000 ------- 0 0.0 2.0 3 6
- 0.252096 0 1 tcp 1000 ------- 0 0.0 2.0 3 6
+ 0.252096 0 1 tcp 1000 ------- 0 0.0 2.0 4 7
- 0.252896 0 1 tcp 1000 ------- 0 0.0 2.0 4 7
r 0.262096 1 0 ack 40 ------- 0 2.0 0.0 2 5
+ 0.262096 0 1 tcp 1000 ------- 0 0.0 2.0 5 8
- 0.262096 0 1 tcp 1000 ------- 0 0.0 2.0 5 8
+ 0.262096 0 1 tcp 1000 ------- 0 0.0 2.0 6 9
r 0.262896 0 1 tcp 1000 ------- 0 0.0 2.0 3 6
+ 0.262896 1 2 tcp 1000 ------- 0 0.0 2.0 3 6
- 0.262896 1 2 tcp 1000 ------- 0 0.0 2.0 3 6
- 0.262896 0 1 tcp 1000 ------- 0 0.0 2.0 6 9
r 0.263696 0 1 tcp 1000 ------- 0 0.0 2.0 4 7
+ 0.263696 1 2 tcp 1000 ------- 0 0.0 2.0 4 7
r 0.272896 0 1 tcp 1000 ------- 0 0.0 2.0 5 8
+ 0.272896 1 2 tcp 1000 ------- 0 0.0 2.0 5 8
- 0.272896 1 2 tcp 1000 ------- 0 0.0 2.0 4 7
r 0.273696 0 1 tcp 1000 ------- 0 0.0 2.0 6 9
+ 0.273696 1 2 tcp 1000 ------- 0 0.0 2.0 6 9
- 0.282896 1 2 tcp 1000 ------- 0 0.0 2.0 5 8
- 0.292896 1 2 tcp 1000 ------- 0 0.0 2.0 6 9
r 0.322896 1 2 tcp 1000 ------- 0 0.0 2.0 3 6
+ 0.322896 2 1 ack 40 ------- 0 2.0 0.0 3 10
- 0.322896 2 1 ack 40 ------- 0 2.0 0.0 3 10
r 0.332896 1 2 tcp 1000 ------- 0 0.0 2.0 4 7
+ 0.332896 2 1 ack 40 ------- 0 2.0 0.0 4 11
- 0.332896 2 1 ack 40 ------- 0 2.0 0.0 4 11
r 0.342896 1 2 tcp 1000 ------- 0 0.0 2.0 5 8
+ 0.342896 2 1 ack 40 ------- 0 2.0 0.0 5 12
- 0.342896 2 1 ack 40 ------- 0 2.0 0.0 5 12
r 0.352896 1 2 tcp 1000 ------- 0 0.0 2.0 6 9
+ 0.352896 2 1 ack 40 ------- 0 2.0 0.0 6 13
- 0.352896 2 1 ack 40 ------- 0 2.0 0.0 6 13
r 0.373296 2 1 ack 40 ------- 0 2.0 0.0 3 10
+ 0.373296 1 0 ack 40 ------- 0 2.0 0.0 3 10
- 0.373296 1 0 ack 40 ------- 0 2.0 0.0 3 10
r 0.383296 2 1 ack 40 ------- 0 2.0 0.0 4 11
+ 0.383296 1 0 ack 40 ------- 0 2.0 0.0 4 11
- 0.383296 1 0 ack 40 ------- 0 2.0 0.0 4 11
r 0.383328 1 0 ack 40 ------- 0 2.0 0.0 3 10
+ 0.383328 0 1 tcp 1000 ------- 0 0.0 2.0 7 14
- 0.383328 0 1 tcp 1000 ------- 0 0.0 2.0 7 14
+ 0.383328 0 1 tcp 1000 ------- 0 0.0 2.0 8 15
- 0.384128 0 1 tcp 1000 ------- 0 0.0 2.0 8 15
r 0.393296 2 1 ack 40 ------- 0 2.0 0.0 5 12
+ 0.393296 1 0 ack 40 ------- 0 2.0 0.0 5 12
- 0.393296 1 0 ack 40 ------- 0 2.0 0.0 5 12
r 0.393328 1 0 ack 40 ------- 0 2.0 0.0 4 11
+ 0.393328 0 1 tcp 1000 ------- 0 0.0 2.0 9 16
- 0.393328 0 1 tcp 1000 ------- 0 0.0 2.0 9 16
+ 0.393328 0 1 tcp 1000 ------- 0 0.0 2.0 10 17
r 0.394128 0 1 tcp 1000 ------- 0 0.0 2.0 7 14
+ 0.394128 1 2 tcp 1000 ------- 0 0.0 2.0 7 14
- 0.394128 1 2 tcp 1000 ------- 0 0.0 2.0 7 14
- 0.394128 0 1 tcp 1000 ------- 0 0.0 2.0 10 17
r 0.394928 0 1 tcp 1000 ------- 0 0.0 2.0 8 15
+ 0.394928 1 2 tcp 1000 ------- 0 0.0 2.0 8 15
r 0.403296 2 1 ack 40 ------- 0 2.0 0.0 6 13
+ 0.403296 1 0 ack 40 ------- 0 2.0 0.0 6 13
- 0.403296 1 0 ack 40 ------- 0 2.0 0.0 6 13
r 0.403328 1 0 ack 40 ------- 0 2.0 0.0 5 12
+ 0.403328 0 1 tcp 1000 ------- 0 0.0 2.0 11 18
- 0.403328 0 1 tcp 1000 ------- 0 0.0 2.0 11 18
+ 0.403328 0 1 tcp 1000 ------- 0 0.0 2.0 12 19
r 0.404128 0 1 tcp 1000 ------- 0 0.0 2.0 9 16
+ 0.404128 1 2 tcp 1000 ------- 0 0.0 2.0 9 16
- 0.404128 1 2 tcp 1000 ------- 0 0.0 2.0 8 15
- 0.404128 0 1 tcp 1000 ------- 0 0.0 2.0 12 19
r 0.404928 0 1 tcp 1000 ------- 0 0.0 2.0 10 17
+ 0.404928 1 2 tcp 1000 ------- 0 0.0 2.0 10 17
r 0.413328 1 0 ack 40 ------- 0 2.0 0.0 6 13
+ 0.413328 0 1 tcp 1000 ------- 0 0.0 2.0 13 20
- 0.413328 0 1 tcp 1000 ------- 0 0.0 2.0 13 20
+ 0.413328 0 1 tcp 1000 ------- 0 0.0 2.0 14 21
r 0.414128 0 1 tcp 1000 ------- 0 0.0 2.0 11 18
+ 0.414128 1 2 tcp 1000 ------- 0 0.0 2.0 11 18
- 0.414128 1 2 tcp 1000 ------- 0 0.0 2.0 9 16
- 0.414128 0 1 tcp 1000 ------- 0 0.0 2.0 14 21
r 0.414928 0 1 tcp 1000 ------- 0 0.0 2.0 12 19
+ 0.414928 1 2 tcp 1000 ------- 0 0.0 2.0 12 19
r 0.424128 0 1 tcp 1000 ------- 0 0.0 2.0 13 20
+ 0.424128 1 2 tcp 1000 ------- 0 0.0 2.0 13 20
- 0.424128 1 2 tcp 1000 ------- 0 0.0 2.0 10 17
r 0.424928 0 1 tcp 1000 ------- 0 0.0 2.0 14 21
+ 0.424928 1 2 tcp 1000 ------- 0 0.0 2.0 14 21
- 0.434128 1 2 tcp 1000 ------- 0 0.0 2.0 11 18
- 0.444128 1 2 tcp 1000 ------- 0 0.0 2.0 12 19
r 0.454128 1 2 tcp 1000 ------- 0 0.0 2.0 7 14
+ 0.454128 2 1 ack 40 ------- 0 2.0 0.0 7 22
- 0.454128 2 1 ack 40 ------- 0 2.0 0.0 7 22
- 0.454128 1 2 tcp 1000 ------- 0 0.0 2.0 13 20
r 0.464128 1 2 tcp 1000 ------- 0 0.0 2.0 8 15
+ 0.464128 2 1 ack 40 ------- 0 2.0 0.0 8 23
- 0.464128 2 1 ack 40 ------- 0 2.0 0.0 8 23
- 0.464128 1 2 tcp 1000 ------- 0 0.0 2.0 14 21
r 0.474128 1 2 tcp 1000 ------- 0 0.0 2.0 9 16
+ 0.474128 2 1 ack 40 ------- 0 2.0 0.0 9 24
- 0.474128 2 1 ack 40 ------- 0 2.0 0.0 9 24
r 0.484128 1 2 tcp 1000 ------- 0 0.0 2.0 10 17
+ 0.484128 2 1 ack 40 ------- 0 2.0 0.0 10 25
- 0.484128 2 1 ack 40 ------- 0 2.0 0.0 10 25
r 0.494128 1 2 tcp 1000 ------- 0 0.0 2.0 11 18
+ 0.494128 2 1 ack 40 ------- 0 2.0 0.0 11 26
- 0.494128 2 1 ack 40 ------- 0 2.0 0.0 11 26
r 0.504128 1 2 tcp 1000 ------- 0 0.0 2.0 12 19
+ 0.504128 2 1 ack 40 ------- 0 2.0 0.0 12 27
- 0.504128 2 1 ack 40 ------- 0 2.0 0.0 12 27
r 0.504528 2 1 ack 40 ------- 0 2.0 0.0 7 22
+ 0.504528 1 0 ack 40 ------- 0 2.0 0.0 7 22
- 0.504528 1 0 ack 40 ------- 0 2.0 0.0 7 22
r 0.514128 1 2 tcp 1000 ------- 0 0.0 2.0 13 20
+ 0.514128 2 1 ack 40 ------- 0 2.0 0.0 13 28
- 0.514128 2 1 ack 40 ------- 0 2.0 0.0 13 28
r 0.514528 2 1 ack 40 ------- 0 2.0 0.0 8 23
+ 0.514528 1 0 ack 40 ------- 0 2.0 0.0 8 23
- 0.514528 1 0 ack 40 ------- 0 2.0 0.0 8 23
r 0.51456 1 0 ack 40 ------- 0 2.0 0.0 7 22
+ 0.51456 0 1 tcp 1000 ------- 0 0.0 2.0 15 29
- 0.51456 0 1 tcp 1000 ------- 0 0.0 2.0 15 29
+ 0.51456 0 1 tcp 1000 ------- 0 0.0 2.0 16 30
- 0.51536 0 1 tcp 1000 ------- 0 0.0 2.0 16 30
r 0.524128 1 2 tcp 1000 ------- 0 0.0 2.0 14 21
+ 0.524128 2 1 ack 40 ------- 0 2.0 0.0 14 31
- 0.524128 2 1 ack 40 ------- 0 2.0 0.0 14 31
r 0.524528 2 1 ack 40 ------- 0 2.0 0.0 9 24
+ 0.524528 1 0 ack 40 ------- 0 2.0 0.0 9 24
- 0.524528 1 0 ack 40 ------- 0 2.0 0.0 9 24
r 0.52456 1 0 ack 40 ------- 0 2.0 0.0 8 23
+ 0.52456 0 1 tcp 1000 ------- 0 0.0 2.0 17 32
- 0.52456 0 1 tcp 1000 ------- 0 0.0 2.0 17 32
+ 0.52456 0 1 tcp 1000 ------- 0 0.0 2.0 18 33
r 0.52536 0 1 tcp 1000 ------- 0 0.0 2.0 15 29
+ 0.52536 1 2 tcp 1000 ------- 0 0.0 2.0 15 29
- 0.52536 1 2 tcp 1000 ------- 0 0.0 2.0 15 29
- 0.52536 0 1 tcp 1000 ------- 0 0.0 2.0 18 33
r 0.52616 0 1 tcp 1000 ------- 0 0.0 2.0 16 30
+ 0.52616 1 2 tcp 1000 ------- 0 0.0 2.0 16 30
r 0.534528 2 1 ack 40 ------- 0 2.0 0.0 10 25
+ 0.534528 1 0 ack 40 ------- 0 2.0 0.0 10 25
- 0.534528 1 0 ack 40 ------- 0 2.0 0.0 10 25
r 0.53456 1 0 ack 40 ------- 0 2.0 0.0 9 24
+ 0.53456 0 1 tcp 1000 ------- 0 0.0 2.0 19 34
- 0.53456 0 1 tcp 1000 ------- 0 0.0 2.0 19 34
+ 0.53456 0 1 tcp 1000 ------- 0 0.0 2.0 20 35
r 0.53536 0 1 tcp 1000 ------- 0 0.0 2.0 17 32
+ 0.53536 1 2 tcp 1000 ------- 0 0.0 2.0 17 32
- 0.53536 1 2 tcp 1000 ------- 0 0.0 2.0 16 30
- 0.53536 0 1 tcp 1000 ------- 0 0.0 2.0 20 35
r 0.53616 0 1 tcp 1000 ------- 0 0.0 2.0 18 33
+ 0.53616 1 2 tcp 1000 ------- 0 0.0 2.0 18 33
r 0.544528 2 1 ack 40 ------- 0 2.0 0.0 11 26
+ 0.544528 1 0 ack 40 ------- 0 2.0 0.0 11 26
- 0.544528 1 0 ack 40 ------- 0 2.0 0.0 11 26
r 0.54456 1 0 ack 40 ------- 0 2.0 0.0 10 25
+ 0.54456 0 1 tcp 1000 ------- 0 0.0 2.0 21 36
- 0.54456 0 1 tcp 1000 ------- 0 0.0 2.0 21 36
+ 0.54456 0 1 tcp 1000 ------- 0 0.0 2.0 22 37
r 0.54536 0 1 tcp 1000 ------- 0 0.0 2.0 19 34
+ 0.54536 1 2 tcp 1000 ------- 0 0.0 2.0 19 34
- 0.54536 1 2 tcp 1000 ------- 0 0.0 2.0 17 32
- 0.54536 0 1 tcp 1000 ------- 0 0.0 2.0 22 37
r 0.54616 0 1 tcp 1000 ------- 0 0.0 2.0 20 35
+ 0.54616 1 2 tcp 1000 ------- 0 0.0 2.0 20 35
r 0.554528 2 1 ack 40 ------- 0 2.0 0.0 12 27
+ 0.554528 1 0 ack 40 ------- 0 2.0 0.0 12 27
- 0.554528 1 0 ack 40 ------- 0 2.0 0.0 12 27
r 0.55456 1 0 ack 40 ------- 0 2.0 0.0 11 26
+ 0.55456 0 1 tcp 1000 ------- 0 0.0 2.0 23 38
- 0.55456 0 1 tcp 1000 ------- 0 0.0 2.0 23 38
+ 0.55456 0 1 tcp 1000 ------- 0 0.0 2.0 24 39
r 0.55536 0 1 tcp 1000 ------- 0 0.0 2.0 21 36
+ 0.55536 1 2 tcp 1000 ------- 0 0.0 2.0 21 36
- 0.55536 1 2 tcp 1000 ------- 0 0.0 2.0 18 33
- 0.55536 0 1 tcp 1000 ------- 0 0.0 2.0 24 39
r 0.55616 0 1 tcp 1000 ------- 0 0.0 2.0 22 37
+ 0.55616 1 2 tcp 1000 ------- 0 0.0 2.0 22 37
r 0.564528 2 1 ack 40 ------- 0 2.0 0.0 13 28
+ 0.564528 1 0 ack 40 ------- 0 2.0 0.0 13 28
- 0.564528 1 0 ack 40 ------- 0 2.0 0.0 13 28
r 0.56456 1 0 ack 40 ------- 0 2.0 0.0 12 27
+ 0.56456 0 1 tcp 1000 ------- 0 0.0 2.0 25 40
- 0.56456 0 1 tcp 1000 ------- 0 0.0 2.0 25 40
+ 0.56456 0 1 tcp 1000 ------- 0 0.0 2.0 26 41
r 0.56536 0 1 tcp 1000 ------- 0 0.0 2.0 23 38
+ 0.56536 1 2 tcp 1000 ------- 0 0.0 2.0 23 38
- 0.56536 1 2 tcp 1000 ------- 0 0.0 2.0 19 34
- 0.56536 0 1 tcp 1000 ------- 0 0.0 2.0 26 41
r 0.56616 0 1 tcp 1000 ------- 0 0.0 2.0 24 39
+ 0.56616 1 2 tcp 1000 ------- 0 0.0 2.0 24 39
r 0.574528 2 1 ack 40 ------- 0 2.0 0.0 14 31
+ 0.574528 1 0 ack 40 ------- 0 2.0 0.0 14 31
- 0.574528 1 0 ack 40 ------- 0 2.0 0.0 14 31
r 0.57456 1 0 ack 40 ------- 0 2.0 0.0 13 28
+ 0.57456 0 1 tcp 1000 ------- 0 0.0 2.0 27 42
- 0.57456 0 1 tcp 1000 ------- 0 0.0 2.0 27 42
+ 0.57456 0 1 tcp 1000 ------- 0 0.0 2.0 28 43
- 0.57536 1 2 tcp 1000 ------- 0 0.0 2.0 20 35
r 0.57536 0 1 tcp 1000 ------- 0 0.0 2.0 25 40
+ 0.57536 1 2 tcp 1000 ------- 0 0.0 2.0 25 40
- 0.57536 0 1 tcp 1000 ------- 0 0.0 2.0 28 43
r 0.57616 0 1 tcp 1000 ------- 0 0.0 2.0 26 41
+ 0.57616 1 2 tcp 1000 ------- 0 0.0 2.0 26 41
r 0.58456 1 0 ack 40 ------- 0 2.0 0.0 14 31
+ 0.58456 0 1 tcp 1000 ------- 0 0.0 2.0 29 44
- 0.58456 0 1 tcp 1000 ------- 0 0.0 2.0 29 44
+ 0.58456 0 1 tcp 1000 ------- 0 0.0 2.0 30 45
r 0.58536 1 2 tcp 1000 ------- 0 0.0 2.0 15 29
+ 0.58536 2 1 ack 40 ------- 0 2.0 0.0 15 46
- 0.58536 2 1 ack 40 ------- 0 2.0 0.0 15 46
- 0.58536 1 2 tcp 1000 ------- 0 0.0 2.0 21 36
r 0.58536 0 1 tcp 1000 ------- 0 0.0 2.0 27 42
+ 0.58536 1 2 tcp 1000 ------- 0 0.0 2.0 27 42
- 0.58536 0 1 tcp 1000 ------- 0 0.0 2.0 30 45
r 0.58616 0 1 tcp 1000 ------- 0 0.0 2.0 28 43
+ 0.58616 1 2 tcp 1000 ------- 0 0.0 2.0 28 43
r 0.59536 1 2 tcp 1000 ------- 0 0.0 2.0 16 30
+ 0.59536 2 1 ack 40 ------- 0 2.0 0.0 16 47
- 0.59536 2 1 ack 40 ------- 0 2.0 0.0 16 47
- 0.59536 1 2 tcp 1000 ------- 0 0.0 2.0 22 37
r 0.59536 0 1 tcp 1000 ------- 0 0.0 2.0 29 44
+ 0.59536 1 2 tcp 1000 ------- 0 0.0 2.0 29 44
r 0.59616 0 1 tcp 1000 ------- 0 0.0 2.0 30 45
+ 0.59616 1 2 tcp 1000 ------- 0 0.0 2.0 30 45
r 0.60536 1 2 tcp 1000 ------- 0 0.0 2.0 17 32
+ 0.60536 2 1 ack 40 ------- 0 2.0 0.0 17 48
- 0.60536 2 1 ack 40 ------- 0 2.0 0.0 17 48
- 0.60536 1 2 tcp 1000 ------- 0 0.0 2.0 23 38
r 0.61536 1 2 tcp 1000 ------- 0 0.0 2.0 18 33
+ 0.61536 2 1 ack 40 ------- 0 2.0 0.0 18 49
- 0.61536 2 1 ack 40 ------- 0 2.0 0.0 18 49
- 0.61536 1 2 tcp 1000 ------- 0 0.0 2.0 24 39
r 0.62536 1 2 tcp 1000 ------- 0 0.0 2.0 19 34
+ 0.62536 2 1 ack 40 ------- 0 2.0 0.0 19 50
- 0.62536 2 1 ack 40 ------- 0 2.0 0.0 19 50
- 0.62536 1 2 tcp 1000 ------- 0 0.0 2.0 25 40
r 0.63536 1 2 tcp 1000 ------- 0 0.0 2.0 20 35
+ 0.63536 2 1 ack 40 ------- 0 2.0 0.0 20 51
- 0.63536 2 1 ack 40 ------- 0 2.0 0.0 20 51
- 0.63536 1 2 tcp 1000 ------- 0 0.0 2.0 26 41
r 0.63576 2 1 ack 40 ------- 0 2.0 0.0 15 46
+ 0.63576 1 0 ack 40 ------- 0 2.0 0.0 15 46
- 0.63576 1 0 ack 40 ------- 0 2.0 0.0 15 46
r 0.64536 1 2 tcp 1000 ------- 0 0.0 2.0 21 36
+ 0.64536 2 1 ack 40 ------- 0 2.0 0.0 21 52
- 0.64536 2 1 ack 40 ------- 0 2.0 0.0 21 52
- 0.64536 1 2 tcp 1000 ------- 0 0.0 2.0 27 42
r 0.64576 2 1 ack 40 ------- 0 2.0 0.0 16 47
+ 0.64576 1 0 ack 40 ------- 0 2.0 0.0 16 47
- 0.64576 1 0 ack 40 ------- 0 2.0 0.0 16 47
r 0.645792 1 0 ack 40 ------- 0 2.0 0.0 15 46
+ 0.645792 0 1 tcp 1000 ------- 0 0.0 2.0 31 53
- 0.645792 0 1 tcp 1000 ------- 0 0.0 2.0 31 53
+ 0.645792 0 1 tcp 1000 ------- 0 0.0 2.0 32 54
- 0.646592 0 1 tcp 1000 ------- 0 0.0 2.0 32 54
r 0.65536 1 2 tcp 1000 ------- 0 0.0 2.0 22 37
+ 0.65536 2 1 ack 40 ------- 0 2.0 0.0 22 55
- 0.65536 2 1 ack 40 ------- 0 2.0 0.0 22 55
- 0.65536 1 2 tcp 1000 ------- 0 0.0 2.0 28 43
r 0.65576 2 1 ack 40 ------- 0 2.0 0.0 17 48
+ 0.65576 1 0 ack 40 ------- 0 2.0 0.0 17 48
- 0.65576 1 0 ack 40 ------- 0 2.0 0.0 17 48
r 0.655792 1 0 ack 40 ------- 0 2.0 0.0 16 47
+ 0.655792 0 1 tcp 1000 ------- 0 0.0 2.0 33 56
- 0.655792 0 1 tcp 1000 ------- 0 0.0 2.0 33 56
+ 0.655792 0 1 tcp 1000 ------- 0 0.0 2.0 34 57
r 0.656592 0 1 tcp 1000 ------- 0 0.0 2.0 31 53
+ 0.656592 1 2 tcp 1000 ------- 0 0.0 2.0 31 53
- 0.656592 0 1 tcp 1000 ------- 0 0.0 2.0 34 57
r 0.657392 0 1 tcp 1000 ------- 0 0.0 2.0 32 54
+ 0.657392 1 2 tcp 1000 ------- 0 0.0 2.0 32 54
r 0.66536 1 2 tcp 1000 ------- 0 0.0 2.0 23 38
+ 0.66536 2 1 ack 40 ------- 0 2.0 0.0 23 58
- 0.66536 2 1 ack 40 ------- 0 2.0 0.0 23 58
- 0.66536 1 2 tcp 1000 ------- 0 0.0 2.0 29 44
r 0.66576 2 1 ack 40 ------- 0 2.0 0.0 18 49
+ 0.66576 1 0 ack 40 ------- 0 2.0 0.0 18 49
- 0.66576 1 0 ack 40 ------- 0 2.0 0.0 18 49
r 0.665792 1 0 ack 40 ------- 0 2.0 0.0 17 48
+ 0.665792 0 1 tcp 1000 ------- 0 0.0 2.0 35 59
- 0.665792 0 1 tcp 1000 ------- 0 0.0 2.0 35 59
+ 0.665792 0 1 tcp 1000 ------- 0 0.0 2.0 36 60
r 0.666592 0 1 tcp 1000 ------- 0 0.0 2.0 33 56
+ 0.666592 1 2 tcp 1000 ------- 0 0.0 2.0 33 56
- 0.666592 0 1 tcp 1000 ------- 0 0.0 2.0 36 60
r 0.667392 0 1 tcp 1000 ------- 0 0.0 2.0 34 57
+ 0.667392 1 2 tcp 1000 ------- 0 0.0 2.0 34 57
r 0.67536 1 2 tcp 1000 ------- 0 0.0 2.0 24 39
+ 0.67536 2 1 ack 40 ------- 0 2.0 0.0 24 61
- 0.67536 2 1 ack 40 ------- 0 2.0 0.0 24 61
- 0.67536 1 2 tcp 1000 ------- 0 0.0 2.0 30 45
r 0.67576 2 1 ack 40 ------- 0 2.0 0.0 19 50
+ 0.67576 1 0 ack 40 ------- 0 2.0 0.0 19 50
- 0.67576 1 0 ack 40 ------- 0 2.0 0.0 19 50
r 0.675792 1 0 ack 40 ------- 0 2.0 0.0 18 49
+ 0.675792 0 1 tcp 1000 ------- 0 0.0 2.0 37 62
- 0.675792 0 1 tcp 1000 ------- 0 0.0 2.0 37 62
+ 0.675792 0 1 tcp 1000 ------- 0 0.0 2.0 38 63
r 0.676592 0 1 tcp 1000 ------- 0 0.0 2.0 35 59
+ 0.676592 1 2 tcp 1000 ------- 0 0.0 2.0 35 59
- 0.676592 0 1 tcp 1000 ------- 0 0.0 2.0 38 63
r 0.677392 0 1 tcp 1000 ------- 0 0.0 2.0 36 60
+ 0.677392 1 2 tcp 1000 ------- 0 0.0 2.0 36 60
r 0.68536 1 2 tcp 1000 ------- 0 0.0 2.0 25 40
+ 0.68536 2 1 ack 40 ------- 0 2.0 0.0 25 64
- 0.68536 2 1 ack 40 ------- 0 2.0 0.0 25 64
- 0.68536 1 2 tcp 1000 ------- 0 0.0 2.0 31 53
r 0.68576 2 1 ack 40 ------- 0 2.0 0.0 20 51
+ 0.68576 1 0 ack 40 ------- 0 2.0 0.0 20 51
- 0.68576 1 0 ack 40 ------- 0 2.0 0.0 20 51
r 0.685792 1 0 ack 40 ------- 0 2.0 0.0 19 50
+ 0.685792 0 1 tcp 1000 ------- 0 0.0 2.0 39 65
- 0.685792 0 1 tcp 1000 ------- 0 0.0 2.0 39 65
+ 0.685792 0 1 tcp 1000 ------- 0 0.0 2.0 40 66
r 0.686592 0 1 tcp 1000 ------- 0 0.0 2.0 37 62
+ 0.686592 1 2 tcp 1000 ------- 0 0.0 2.0 37 62
- 0.686592 0 1 tcp 1000 ------- 0 0.0 2.0 40 66
r 0.687392 0 1 tcp 1000 ------- 0 0.0 2.0 38 63
+ 0.687392 1 2 tcp 1000 ------- 0 0.0 2.0 38 63
r 0.69536 1 2 tcp 1000 ------- 0 0.0 2.0 26 41
+ 0.69536 2 1 ack 40 ------- 0 2.0 0.0 26 67
- 0.69536 2 1 ack 40 ------- 0 2.0 0.0 26 67
- 0.69536 1 2 tcp 1000 ------- 0 0.0 2.0 32 54
r 0.69576 2 1 ack 40 ------- 0 2.0 0.0 21 52
+ 0.69576 1 0 ack 40 ------- 0 2.0 0.0 21 52
- 0.69576 1 0 ack 40 ------- 0 2.0 0.0 21 52
r 0.695792 1 0 ack 40 ------- 0 2.0 0.0 20 51
+ 0.695792 0 1 tcp 1000 ------- 0 0.0 2.0 41 68
- 0.695792 0 1 tcp 1000 ------- 0 0.0 2.0 41 68
+ 0.695792 0 1 tcp 1000 ------- 0 0.0 2.0 42 69
r 0.696592 0 1 tcp 1000 ------- 0 0.0 2.0 39 65
+ 0.696592 1 2 tcp 1000 ------- 0 0.0 2.0 39 65
- 0.696592 0 1 tcp 1000 ------- 0 0.0 2.0 42 69
r 0.697392 0 1 tcp 1000 ------- 0 0.0 2.0 40 66
+ 0.697392 1 2 tcp 1000 ------- 0 0.0 2.0 40 66
r 0.70536 1 2 tcp 1000 ------- 0 0.0 2.0 27 42
+ 0.70536 2 1 ack 40 ------- 0 2.0 0.0 27 70
- 0.70536 2 1 ack 40 ------- 0 2.0 0.0 27 70
- 0.70536 1 2 tcp 1000 ------- 0 0.0 2.0 33 56
r 0.70576 2 1 ack 40 ------- 0 2.0 0.0 22 55
+ 0.70576 1 0 ack 40 ------- 0 2.0 0.0 22 55
- 0.70576 1 0 ack 40 ------- 0 2.0 0.0 22 55
r 0.705792 1 0 ack 40 ------- 0 2.0 0.0 21 52
+ 0.705792 0 1 tcp 1000 ------- 0 0.0 2.0 43 71
- 0.705792 0 1 tcp 1000 ------- 0 0.0 2.0 43 71
+ 0.705792 0 1 tcp 1000 ------- 0 0.0 2.0 44 72
r 0.706592 0 1 tcp 1000 ------- 0 0.0 2.0 41 68
+ 0.706592 1 2 tcp 1000 ------- 0 0.0 2.0 41 68
- 0.706592 0 1 tcp 1000 ------- 0 0.0 2.0 44 72
r 0.707392 0 1 tcp 1000 ------- 0 0.0 2.0 42 69
+ 0.707392 1 2 tcp 1000 ------- 0 0.0 2.0 42 69
r 0.71536 1 2 tcp 1000 ------- 0 0.0 2.0 28 43
+ 0.71536 2 1 ack 40 ------- 0 2.0 0.0 28 73
- 0.71536 2 1 ack 40 ------- 0 2.0 0.0 28 73
- 0.71536 1 2 tcp 1000 ------- 0 0.0 2.0 34 57
r 0.71576 2 1 ack 40 ------- 0 2.0 0.0 23 58
+ 0.71576 1 0 ack 40 ------- 0 2.0 0.0 23 58
- 0.71576 1 0 ack 40 ------- 0 2.0 0.0 23 58
r 0.715792 1 0 ack 40 ------- 0 2.0 0.0 22 55
+ 0.715792 0 1 tcp 1000 ------- 0 0.0 2.0 45 74
- 0.715792 0 1 tcp 1000 ------- 0 0.0 2.0 45 74
+ 0.715792 0 1 tcp 1000 ------- 0 0.0 2.0 46 75
r 0.716592 0 1 tcp 1000 ------- 0 0.0 2.0 43 71
+ 0.716592 1 2 tcp 1000 ------- 0 0.0 2.0 43 71
- 0.716592 0 1 tcp 1000 ------- 0 0.0 2.0 46 75
r 0.717392 0 1 tcp 1000 ------- 0 0.0 2.0 44 72
+ 0.717392 1 2 tcp 1000 ------- 0 0.0 2.0 44 72
r 0.72536 1 2 tcp 1000 ------- 0 0.0 2.0 29 44
+ 0.72536 2 1 ack 40 ------- 0 2.0 0.0 29 76
- 0.72536 2 1 ack 40 ------- 0 2.0 0.0 29 76
- 0.72536 1 2 tcp 1000 ------- 0 0.0 2.0 35 59
r 0.72576 2 1 ack 40 ------- 0 2.0 0.0 24 61
+ 0.72576 1 0 ack 40 ------- 0 2.0 0.0 24 61
- 0.72576 1 0 ack 40 ------- 0 2.0 0.0 24 61
r 0.725792 1 0 ack 40 ------- 0 2.0 0.0 23 58
+ 0.725792 0 1 tcp 1000 ------- 0 0.0 2.0 47 77
- 0.725792 0 1 tcp 1000 ------- 0 0.0 2.0 47 77
+ 0.725792 0 1 tcp 1000 ------- 0 0.0 2.0 48 78
r 0.726592 0 1 tcp 1000 ------- 0 0.0 2.0 45 74
+ 0.726592 1 2 tcp 1000 ------- 0 0.0 2.0 45 74
- 0.726592 0 1 tcp 1000 ------- 0 0.0 2.0 48 78
r 0.727392 0 1 tcp 1000 ------- 0 0.0 2.0 46 75
+ 0.727392 1 2 tcp 1000 ------- 0 0.0 2.0 46 75
r 0.73536 1 2 tcp 1000 ------- 0 0.0 2.0 30 45
+ 0.73536 2 1 ack 40 ------- 0 2.0 0.0 30 79
- 0.73536 2 1 ack 40 ------- 0 2.0 0.0 30 79
- 0.73536 1 2 tcp 1000 ------- 0 0.0 2.0 36 60
r 0.73576 2 1 ack 40 ------- 0 2.0 0.0 25 64
+ 0.73576 1 0 ack 40 ------- 0 2.0 0.0 25 64
- 0.73576 1 0 ack 40 ------- 0 2.0 0.0 25 64
r 0.735792 1 0 ack 40 ------- 0 2.0 0.0 24 61
+ 0.735792 0 1 tcp 1000 ------- 0 0.0 2.0 49 80
- 0.735792 0 1 tcp 1000 ------- 0 0.0 2.0 49 80
+ 0.735792 0 1 tcp 1000 ------- 0 0.0 2.0 50 81
r 0.736592 0 1 tcp 1000 ------- 0 0.0 2.0 47 77
+ 0.736592 1 2 tcp 1000 ------- 0 0.0 2.0 47 77
- 0.736592 0 1 tcp 1000 ------- 0 0.0 2.0 50 81
r 0.737392 0 1 tcp 1000 ------- 0 0.0 2.0 48 78
+ 0.737392 1 2 tcp 1000 ------- 0 0.0 2.0 48 78
d 0.737392 1 2 tcp 1000 ------- 0 0.0 2.0 48 78
r 0.74536 1 2 tcp 1000 ------- 0 0.0 2.0 31 53
+ 0.74536 2 1 ack 40 ------- 0 2.0 0.0 31 82
- 0.74536 2 1 ack 40 ------- 0 2.0 0.0 31 82
- 0.74536 1 2 tcp 1000 ------- 0 0.0 2.0 37 62
r 0.74576 2 1 ack 40 ------- 0 2.0 0.0 26 67
+ 0.74576 1 0 ack 40 ------- 0 2.0 0.0 26 67
- 0.74576 1 0 ack 40 ------- 0 2.0 0.0 26 67
r 0.745792 1 0 ack 40 ------- 0 2.0 0.0 25 64
+ 0.745792 0 1 tcp 1000 ------- 0 0.0 2.0 51 83
- 0.745792 0 1 tcp 1000 ------- 0 0.0 2.0 51 83
+ 0.745792 0 1 tcp 1000 ------- 0 0.0 2.0 52 84
r 0.746592 0 1 tcp 1000 ------- 0 0.0 2.0 49 80
+ 0.746592 1 2 tcp 1000 ------- 0 0.0 2.0 49 80
- 0.746592 0 1 tcp 1000 ------- 0 0.0 2.0 52 84
r 0.747392 0 1 tcp 1000 ------- 0 0.0 2.0 50 81
+ 0.747392 1 2 tcp 1000 ------- 0 0.0 2.0 50 81
d 0.747392 1 2 tcp 1000 ------- 0 0.0 2.0 50 81
r 0.75536 1 2 tcp 1000 ------- 0 0.0 2.0 32 54
+ 0.75536 2 1 ack 40 ------- 0 2.0 0.0 32 85
- 0.75536 2 1 ack 40 ------- 0 2.0 0.0 32 85
- 0.75536 1 2 tcp 1000 ------- 0 0.0 2.0 38 63
r 0.75576 2 1 ack 40 ------- 0 2.0 0.0 27 70
+ 0.75576 1 0 ack 40 ------- 0 2.0 0.0 27 70
- 0.75576 1 0 ack 40 ------- 0 2.0 0.0 27 70
r 0.755792 1 0 ack 40 ------- 0 2.0 0.0 26 67
+ 0.755792 0 1 tcp 1000 ------- 0 0.0 2.0 53 86
- 0.755792 0 1 tcp 1000 ------- 0 0.0 2.0 53 86
+ 0.755792 0 1 tcp 1000 ------- 0 0.0 2.0 54 87
r 0.756592 0 1 tcp 1000 ------- 0 0.0 2.0 51 83
+ 0.756592 1 2 tcp 1000 ------- 0 0.0 2.0 51 83
- 0.756592 0 1 tcp 1000 ------- 0 0.0 2.0 54 87
r 0.757392 0 1 tcp 1000 ------- 0 0.0 2.0 52 84
+ 0.757392 1 2 tcp 1000 ------- 0 0.0 2.0 52 84
d 0.757392 1 2 tcp 1000 ------- 0 0.0 2.0 52 84
r 0.76536 1 2 tcp 1000 ------- 0 0.0 2.0 33 56
+ 0.76536 2 1 ack 40 ------- 0 2.0 0.0 33 88
- 0.76536 2 1 ack 40 ------- 0 2.0 0.0 33 88
- 0.76536 1 2 tcp 1000 ------- 0 0.0 2.0 39 65
r 0.76576 2 1 ack 40 ------- 0 2.0 0.0 28 73
+ 0.76576 1 0 ack 40 ------- 0 2.0 0.0 28 73
- 0.76576 1 0 ack 40 ------- 0 2.0 0.0 28 73
r 0.765792 1 0 ack 40 ------- 0 2.0 0.0 27 70
+ 0.765792 0 1 tcp 1000 ------- 0 0.0 2.0 55 89
- 0.765792 0 1 tcp 1000 ------- 0 0.0 2.0 55 89
+ 0.765792 0 1 tcp 1000 ------- 0 0.0 2.0 56 90
r 0.766592 0 1 tcp 1000 ------- 0 0.0 2.0 53 86
+ 0.766592 1 2 tcp 1000 ------- 0 0.0 2.0 53 86
- 0.766592 0 1 tcp 1000 ------- 0 0.0 2.0 56 90
r 0.767392 0 1 tcp 1000 ------- 0 0.0 2.0 54 87
+ 0.767392 1 2 tcp 1000 ------- 0 0.0 2.0 54 87
d 0.767392 1 2 tcp 1000 ------- 0 0.0 2.0 54 87
r 0.77536 1 2 tcp 1000 ------- 0 0.0 2.0 34 57
+ 0.77536 2 1 ack 40 ------- 0 2.0 0.0 34 91
- 0.77536 2 1 ack 40 ------- 0 2.0 0.0 34 91
- 0.77536 1 2 tcp 1000 ------- 0 0.0 2.0 40 66
r 0.77576 2 1 ack 40 ------- 0 2.0 0.0 29 76
+ 0.77576 1 0 ack 40 ------- 0 2.0 0.0 29 76
- 0.77576 1 0 ack 40 ------- 0 2.0 0.0 29 76
r 0.775792 1 0 ack 40 ------- 0 2.0 0.0 28 73
+ 0.775792 0 1 tcp 1000 ------- 0 0.0 2.0 57 92
- 0.775792 0 1 tcp 1000 ------- 0 0.0 2.0 57 92
+ 0.775792 0 1 tcp 1000 ------- 0 0.0 2.0 58 93
r 0.776592 0 1 tcp 1000 ------- 0 0.0 2.0 55 89
+ 0.776592 1 2 tcp 1000 ------- 0 0.0 2.0 55 89
- 0.776592 0 1 tcp 1000 ------- 0 0.0 2.0 58 93
r 0.777392 0 1 tcp 1000 ------- 0 0.0 2.0 56 90
+ 0.777392 1 2 tcp 1000 ------- 0 0.0 2.0 56 90
d 0.777392 1 2 tcp 1000 ------- 0 0.0 2.0 56 90
r 0.78536 1 2 tcp 1000 ------- 0 0.0 2.0 35 59
+ 0.78536 2 1 ack 40 ------- 0 2.0 0.0 35 94
- 0.78536 2 1 ack 40 ------- 0 2.0 0.0 35 94
- 0.78536 1 2 tcp 1000 ------- 0 0.0 2.0 41 68
r 0.78576 2 1 ack 40 ------- 0 2.0 0.0 30 79
+ 0.78576 1 0 ack 40 ------- 0 2.0 0.0 30 79
- 0.78576 1 0 ack 40 ------- 0 2.0 0.0 30 79
r 0.785792 1 0 ack 40 ------- 0 2.0 0.0 29 76
+ 0.785792 0 1 tcp 1000 ------- 0 0.0 2.0 59 95
- 0.785792 0 1 tcp 1000 ------- 0 0.0 2.0 59 95
+ 0.785792 0 1 tcp 1000 ------- 0 0.0 2.0 60 96
r 0.786592 0 1 tcp 1000 ------- 0 0.0 2.0 57 92
+ 0.786592 1 2 tcp 1000 ------- 0 0.0 2.0 57 92
- 0.786592 0 1 tcp 1000 ------- 0 0.0 2.0 60 96
r 0.787392 0 1 tcp 1000 ------- 0 0.0 2.0 58 93
+ 0.787392 1 2 tcp 1000 ------- 0 0.0 2.0 58 93
d 0.787392 1 2 tcp 1000 ------- 0 0.0 2.0 58 93
r 0.79536 1 2 tcp 1000 ------- 0 0.0 2.0 36 60
+ 0.79536 2 1 ack 40 ------- 0 2.0 0.0 36 97
- 0.79536 2 1 ack 40 ------- 0 2.0 0.0 36 97
- 0.79536 1 2 tcp 1000 ------- 0 0.0 2.0 42 69
r 0.79576 2 1 ack 40 ------- 0 2.0 0.0 31 82
+ 0.79576 1 0 ack 40 ------- 0 2.0 0.0 31 82
- 0.79576 1 0 ack 40 ------- 0 2.0 0.0 31 82
r 0.795792 1 0 ack 40 ------- 0 2.0 0.0 30 79
+ 0.795792 0 1 tcp 1000 ------- 0 0.0 2.0 61 98
- 0.795792 0 1 tcp 1000 ------- 0 0.0 2.0 61 98
+ 0.795792 0 1 tcp 1000 ------- 0 0.0 2.0 62 99
r 0.796592 0 1 tcp 1000 ------- 0 0.0 2.0 59 95
+ 0.796592 1 2 tcp 1000 ------- 0 0.0 2.0 59 95
- 0.796592 0 1 tcp 1000 ------- 0 0.0 2.0 62 99
r 0.797392 0 1 tcp 1000 ------- 0 0.0 2.0 60 96
+ 0.797392 1 2 tcp 1000 ------- 0 0.0 2.0 60 96
d 0.797392 1 2 tcp 1000 ------- 0 0.0 2.0 60 96
r 0.80536 1 2 tcp 1000 ------- 0 0.0 2.0 37 62
+ 0.80536 2 1 ack 40 ------- 0 2.0 0.0 37 100
- 0.80536 2 1 ack 40 ------- 0 2.0 0.0 37 100
- 0.80536 1 2 tcp 1000 ------- 0 0.0 2.0 43 71
r 0.80576 2 1 ack 40 ------- 0 2.0 0.0 32 85
+ 0.80576 1 0 ack 40 ------- 0 2.0 0.0 32 85
- 0.80576 1 0 ack 40 ------- 0 2.0 0.0 32 85
r 0.805792 1 0 ack 40 ------- 0 2.0 0.0 31 82
+ 0.805792 0 1 tcp 1000 ------- 0 0.0 2.0 63 101
- 0.805792 0 1 tcp 1000 ------- 0 0.0 2.0 63 101
+ 0.805792 0 1 tcp 1000 ------- 0 0.0 2.0 64 102
r 0.806592 0 1 tcp 1000 ------- 0 0.0 2.0 61 98
+ 0.806592 1 2 tcp 1000 ------- 0 0.0 2.0 61 98
- 0.806592 0 1 tcp 1000 ------- 0 0.0 2.0 64 102
r 0.807392 0 1 tcp 1000 ------- 0 0.0 2.0 62 99
+ 0.807392 1 2 tcp 1000 ------- 0 0.0 2.0 62 99
d 0.807392 1 2 tcp 1000 ------- 0 0.0 2.0 62 99
r 0.81536 1 2 tcp 1000 ------- 0 0.0 2.0 38 63
+ 0.81536 2 1 ack 40 ------- 0 2.0 0.0 38 103
- 0.81536 2 1 ack 40 ------- 0 2.0 0.0 38 103
- 0.81536 1 2 tcp 1000 ------- 0 0.0 2.0 44 72
r 0.81576 2 1 ack 40 ------- 0 2.0 0.0 33 88
+ 0.81576 1 0 ack 40 ------- 0 2.0 0.0 33 88
- 0.81576 1 0 ack 40 ------- 0 2.0 0.0 33 88
r 0.815792 1 0 ack 40 ------- 0 2.0 0.0 32 85
+ 0.815792 0 1 tcp 1000 ------- 0 0.0 2.0 65 104
- 0.815792 0 1 tcp 1000 ------- 0 0.0 2.0 65 104
+ 0.815792 0 1 tcp 1000 ------- 0 0.0 2.0 66 105
r 0.816592 0 1 tcp 1000 ------- 0 0.0 2.0 63 101
+ 0.816592 1 2 tcp 1000 ------- 0 0.0 2.0 63 101
- 0.816592 0 1 tcp 1000 ------- 0 0.0 2.0 66 105
r 0.817392 0 1 tcp 1000 ------- 0 0.0 2.0 64 102
+ 0.817392 1 2 tcp 1000 ------- 0 0.0 2.0 64 102
d 0.817392 1 2 tcp 1000 ------- 0 0.0 2.0 64 102
r 0.82536 1 2 tcp 1000 ------- 0 0.0 2.0 39 65
+ 0.82536 2 1 ack 40 ------- 0 2.0 0.0 39 106
- 0.82536 2 1 ack 40 ------- 0 2.0 0.0 39 106
- 0.82536 1 2 tcp 1000 ------- 0 0.0 2.0 45 74
r 0.82576 2 1 ack 40 ------- 0 2.0 0.0 34 91
+ 0.82576 1 0 ack 40 ------- 0 2.0 0.0 34 91
- 0.82576 1 0 ack 40 ------- 0 2.0 0.0 34 91
r 0.825792 1 0 ack 40 ------- 0 2.0 0.0 33 88
+ 0.825792 0 1 tcp 1000 ------- 0 0.0 2.0 67 107
- 0.825792 0 1 tcp 1000 ------- 0 0.0 2.0 67 107
+ 0.825792 0 1 tcp 1000 ------- 0 0.0 2.0 68 108
r 0.826592 0 1 tcp 1000 ------- 0 0.0 2.0 65 104
+ 0.826592 1 2 tcp 1000 ------- 0 0.0 2.0 65 104
- 0.826592 0 1 tcp 1000 ------- 0 0.0 2.0 68 108
r 0.827392 0 1 tcp 1000 ------- 0 0.0 2.0 66 105
+ 0.827392 1 2 tcp 1000 ------- 0 0.0 2.0 66 105
d 0.827392 1 2 tcp 1000 ------- 0 0.0 2.0 66 105
r 0.83536 1 2 tcp 1000 ------- 0 0.0 2.0 40 66
+ 0.83536 2 1 ack 40 ------- 0 2.0 0.0 40 109
- 0.83536 2 1 ack 40 ------- 0 2.0 0.0 40 109
- 0.83536 1 2 tcp 1000 ------- 0 0.0 2.0 46 75
r 0.83576 2 1 ack 40 ------- 0 2.0 0.0 35 94
+ 0.83576 1 0 ack 40 ------- 0 2.0 0.0 35 94
- 0.83576 1 0 ack 40 ------- 0 2.0 0.0 35 94
r 0.835792 1 0 ack 40 ------- 0 2.0 0.0 34 91
+ 0.835792 0 1 tcp 1000 ------- 0 0.0 2.0 69 110
- 0.835792 0 1 tcp 1000 ------- 0 0.0 2.0 69 110
+ 0.835792 0 1 tcp 1000 ------- 0 0.0 2.0 70 111
r 0.836592 0 1 tcp 1000 ------- 0 0.0 2.0 67 107
+ 0.836592 1 2 tcp 1000 ------- 0 0.0 2.0 67 107
- 0.836592 0 1 tcp 1000 ------- 0 0.0 2.0 70 111
r 0.837392 0 1 tcp 1000 ------- 0 0.0 2.0 68 108
+ 0.837392 1 2 tcp 1000 ------- 0 0.0 2.0 68 108
d 0.837392 1 2 tcp 1000 ------- 0 0.0 2.0 68 108
r 0.84536 1 2 tcp 1000 ------- 0 0.0 2.0 41 68
+ 0.84536 2 1 ack 40 ------- 0 2.0 0.0 41 112
- 0.84536 2 1 ack 40 ------- 0 2.0 0.0 41 112
- 0.84536 1 2 tcp 1000 ------- 0 0.0 2.0 47 77
r 0.84576 2 1 ack 40 ------- 0 2.0 0.0 36 97
+ 0.84576 1 0 ack 40 ------- 0 2.0 0.0 36 97
- 0.84576 1 0 ack 40 ------- 0 2.0 0.0 36 97
r 0.845792 1 0 ack 40 ------- 0 2.0 0.0 35 94
+ 0.845792 0 1 tcp 1000 ------- 0 0.0 2.0 71 113
- 0.845792 0 1 tcp 1000 ------- 0 0.0 2.0 71 113
+ 0.845792 0 1 tcp 1000 ------- 0 0.0 2.0 72 114
r 0.846592 0 1 tcp 1000 ------- 0 0.0 2.0 69 110
+ 0.846592 1 2 tcp 1000 ------- 0 0.0 2.0 69 110
- 0.846592 0 1 tcp 1000 ------- 0 0.0 2.0 72 114
r 0.847392 0 1 tcp 1000 ------- 0 0.0 2.0 70 111
+ 0.847392 1 2 tcp 1000 ------- 0 0.0 2.0 70 111
d 0.847392 1 2 tcp 1000 ------- 0 0.0 2.0 70 111
r 0.85536 1 2 tcp 1000 ------- 0 0.0 2.0 42 69
+ 0.85536 2 1 ack 40 ------- 0 2.0 0.0 42 115
- 0.85536 2 1 ack 40 ------- 0 2.0 0.0 42 115
- 0.85536 1 2 tcp 1000 ------- 0 0.0 2.0 49 80
r 0.85576 2 1 ack 40 ------- 0 2.0 0.0 37 100
+ 0.85576 1 0 ack 40 ------- 0 2.0 0.0 37 100
- 0.85576 1 0 ack 40 ------- 0 2.0 0.0 37 100
r 0.855792 1 0 ack 40 ------- 0 2.0 0.0 36 97
+ 0.855792 0 1 tcp 1000 ------- 0 0.0 2.0 73 116
- 0.855792 0 1 tcp 1000 ------- 0 0.0 2.0 73 116
+ 0.855792 0 1 tcp 1000 ------- 0 0.0 2.0 74 117
r 0.856592 0 1 tcp 1000 ------- 0 0.0 2.0 71 113
+ 0.856592 1 2 tcp 1000 ------- 0 0.0 2.0 71 113
- 0.856592 0 1 tcp 1000 ------- 0 0.0 2.0 74 117
r 0.857392 0 1 tcp 1000 ------- 0 0.0 2.0 72 114
+ 0.857392 1 2 tcp 1000 ------- 0 0.0 2.0 72 114
d 0.857392 1 2 tcp 1000 ------- 0 0.0 2.0 72 114
r 0.86536 1 2 tcp 1000 ------- 0 0.0 2.0 43 71
+ 0.86536 2 1 ack 40 ------- 0 2.0 0.0 43 118
- 0.86536 2 1 ack 40 ------- 0 2.0 0.0 43 118
- 0.86536 1 2 tcp 1000 ------- 0 0.0 2.0 51 83
r 0.86576 2 1 ack 40 ------- 0 2.0 0.0 38 103