r 0.010032 0 1 tcp 40 ------- 0 0.0 2.0 0 0
r 0.060432 1 2 tcp 40 ------- 0 0.0 2.0 0 0
r 0.110832 2 1 ack 40 ------- 0 2.0 0.0 0 1
r 0.120864 1 0 ack 40 ------- 0 2.0 0.0 0 1
r 0.131664 0 1 tcp 1000 ------- 0 0.0 2.0 1 2
r 0.132464 0 1 tcp 1000 ------- 0 0.0 2.0 2 3
r 0.191664 1 2 tcp 1000 ------- 0 0.0 2.0 1 2
r 0.201664 1 2 tcp 1000 ------- 0 0.0 2.0 2 3
r 0.242064 2 1 ack 40 ------- 0 2.0 0.0 1 4
r 0.252064 2 1 ack 40 ------- 0 2.0 0.0 2 5
r 0.252096 1 0 ack 40 ------- 0 2.0 0.0 1 4
r 0.262096 1 0 ack 40 ------- 0 2.0 0.0 2 5
r 0.262896 0 1 tcp 1000 ------- 0 0.0 2.0 3 6
r 0.263696 0 1 tcp 1000 ------- 0 0.0 2.0 4 7
r 0.272896 0 1 tcp 1000 ------- 0 0.0 2.0 5 8
r 0.273696 0 1 tcp 1000 ------- 0 0.0 2.0 6 9
r 0.322896 1 2 tcp 1000 ------- 0 0.0 2.0 3 6
r 0.332896 1 2 tcp 1000 ------- 0 0.0 2.0 4 7
r 0.342896 1 2 tcp 1000 ------- 0 0.0 2.0 5 8
r 0.352896 1 2 tcp 1000 ------- 0 0.0 2.0 6 9
r 0.373296 2 1 ack 40 ------- 0 2.0 0.0 3 10
r 0.383296 2 1 ack 40 ------- 0 2.0 0.0 4 11
r 0.383328 1 0 ack 40 ------- 0 2.0 0.0 3 10
r 0.393296 2 1 ack 40 ------- 0 2.0 0.0 5 12
r 0.393328 1 0 ack 40 ------- 0 2.0 0.0 4 11
r 0.394128 0 1 tcp 1000 ------- 0 0.0 2.0 7 14
r 0.394928 0 1 tcp 1000 ------- 0 0.0 2.0 8 15
r 0.403296 2 1 ack 40 ------- 0 2.0 0.0 6 13
r 0.403328 1 0 ack 40 ------- 0 2.0 0.0 5 12
r 0.404128 0 1 tcp 1000 ------- 0 0.0 2.0 9 16
r 0.404928 0 1 tcp 1000 ------- 0 0.0 2.0 10 17
r 0.413328 1 0 ack 40 ------- 0 2.0 0.0 6 13
r 0.414128 0 1 tcp 1000 ------- 0 0.0 2.0 11 18
r 0.414928 0 1 tcp 1000 ------- 0 0.0 2.0 12 19
r 0.424128 0 1 tcp 1000 ------- 0 0.0 2.0 13 20
r 0.424928 0 1 tcp 1000 ------- 0 0.0 2.0 14 21
r 0.454128 1 2 tcp 1000 ------- 0 0.0 2.0 7 14
r 0.464128 1 2 tcp 1000 ------- 0 0.0 2.0 8 15
r 0.474128 1 2 tcp 1000 ------- 0 0.0 2.0 9 16
r 0.484128 1 2 tcp 1000 ------- 0 0.0 2.0 10 17
r 0.494128 1 2 tcp 1000 ------- 0 0.0 2.0 11 18
r 0.504128 1 2 tcp 1000 ------- 0 0.0 2.0 12 19
r 0.504528 2 1 ack 40 ------- 0 2.0 0.0 7 22
r 0.514128 1 2 tcp 1000 ------- 0 0.0 2.0 13 20
r 0.514528 2 1 ack 40 ------- 0 2.0 0.0 8 23
r 0.51456 1 0 ack 40 ------- 0 2.0 0.0 7 22
r 0.524128 1 2 tcp 1000 ------- 0 0.0 2.0 14 21
r 0.524528 2 1 ack 40 ------- 0 2.0 0.0 9 24
r 0.52456 1 0 ack 40 ------- 0 2.0 0.0 8 23
r 0.52536 0 1 tcp 1000 ------- 0 0.0 2.0 15 29
r 0.52616 0 1 tcp 1000 ------- 0 0.0 2.0 16 30
r 0.534528 2 1 ack 40 ------- 0 2.0 0.0 10 25
r 0.53456 1 0 ack 40 ------- 0 2.0 0.0 9 24
r 0.53536 0 1 tcp 1000 ------- 0 0.0 2.0 17 32
r 0.53616 0 1 tcp 1000 ------- 0 0.0 2.0 18 33
r 0.544528 2 1 ack 40 ------- 0 2.0 0.0 11 26
r 0.54456 1 0 ack 40 ------- 0 2.0 0.0 10 25
r 0.54536 0 1 tcp 1000 ------- 0 0.0 2.0 19 34
r 0.54616 0 1 tcp 1000 ------- 0 0.0 2.0 20 35
r 0.554528 2 1 ack 40 ------- 0 2.0 0.0 12 27
r 0.55456 1 0 ack 40 ------- 0 2.0 0.0 11 26
r 0.55536 0 1 tcp 1000 ------- 0 0.0 2.0 21 36
r 0.55616 0 1 tcp 1000 ------- 0 0.0 2.0 22 37
r 0.564528 2 1 ack 40 ------- 0 2.0 0.0 13 28
r 0.56456 1 0 ack 40 ------- 0 2.0 0.0 12 27
r 0.56536 0 1 tcp 1000 ------- 0 0.0 2.0 23 38
r 0.56616 0 1 tcp 1000 ------- 0 0.0 2.0 24 39
r 0.574528 2 1 ack 40 ------- 0 2.0 0.0 14 31
r 0.57456 1 0 ack 40 ------- 0 2.0 0.0 13 28
r 0.57536 0 1 tcp 1000 ------- 0 0.0 2.0 25 40
r 0.57616 0 1 tcp 1000 ------- 0 0.0 2.0 26 41
r 0.58456 1 0 ack 40 ------- 0 2.0 0.0 14 31
r 0.58536 1 2 tcp 1000 ------- 0 0.0 2.0 15 29
r 0.58536 0 1 tcp 1000 ------- 0 0.0 2.0 27 42
r 0.58616 0 1 tcp 1000 ------- 0 0.0 2.0 28 43
r 0.59536 1 2 tcp 1000 ------- 0 0.0 2.0 16 30
r 0.59536 0 1 tcp 1000 ------- 0 0.0 2.0 29 44
r 0.59616 0 1 tcp 1000 ------- 0 0.0 2.0 30 45
r 0.60536 1 2 tcp 1000 ------- 0 0.0 2.0 17 32
r 0.61536 1 2 tcp 1000 ------- 0 0.0 2.0 18 33
r 0.62536 1 2 tcp 1000 ------- 0 0.0 2.0 19 34
r 0.63536 1 2 tcp 1000 ------- 0 0.0 2.0 20 35
r 0.63576 2 1 ack 40 ------- 0 2.0 0.0 15 46
r 0.64536 1 2 tcp 1000 ------- 0 0.0 2.0 21 36
r 0.64576 2 1 ack 40 ------- 0 2.0 0.0 16 47
r 0.645792 1 0 ack 40 ------- 0 2.0 0.0 15 46
r 0.65536 1 2 tcp 1000 ------- 0 0.0 2.0 22 37
r 0.65576 2 1 ack 40 ------- 0 2.0 0.0 17 48
r 0.655792 1 0 ack 40 ------- 0 2.0 0.0 16 47
r 0.656592 0 1 tcp 1000 ------- 0 0.0 2.0 31 53
r 0.657392 0 1 tcp 1000 ------- 0 0.0 2.0 32 54
r 0.66536 1 2 tcp 1000 ------- 0 0.0 2.0 23 38
r 0.66576 2 1 ack 40 ------- 0 2.0 0.0 18 49
r 0.665792 1 0 ack 40 ------- 0 2.0 0.0 17 48
r 0.666592 0 1 tcp 1000 ------- 0 0.0 2.0 33 56
r 0.667392 0 1 tcp 1000 ------- 0 0.0 2.0 34 57
r 0.67536 1 2 tcp 1000 ------- 0 0.0 2.0 24 39
r 0.67576 2 1 ack 40 ------- 0 2.0 0.0 19 50
r 0.675792 1 0 ack 40 ------- 0 2.0 0.0 18 49
r 0.676592 0 1 tcp 1000 ------- 0 0.0 2.0 35 59
r 0.677392 0 1 tcp 1000 ------- 0 0.0 2.0 36 60
r 0.68536 1 2 tcp 1000 ------- 0 0.0 2.0 25 40
r 0.68576 2 1 ack 40 ------- 0 2.0 0.0 20 51
r 0.685792 1 0 ack 40 ------- 0 2.0 0.0 19 50
r 0.686592 0 1 tcp 1000 ------- 0 0.0 2.0 37 62
r 0.687392 0 1 tcp 1000 ------- 0 0.0 2.0 38 63
r 0.69536 1 2 tcp 1000 ------- 0 0.0 2.0 26 41
r 0.69576 2 1 ack 40 ------- 0 2.0 0.0 21 52
r 0.695792 1 0 ack 40 ------- 0 2.0 0.0 20 51
r 0.696592 0 1 tcp 1000 ------- 0 0.0 2.0 39 65
r 0.697392 0 1 tcp 1000 ------- 0 0.0 2.0 40 66
r 0.70536 1 2 tcp 1000 ------- 0 0.0 2.0 27 42
r 0.70576 2 1 ack 40 ------- 0 2.0 0.0 22 55
r 0.705792 1 0 ack 40 ------- 0 2.0 0.0 21 52
r 0.706592 0 1 tcp 1000 ------- 0 0.0 2.0 41 68
r 0.707392 0 1 tcp 1000 ------- 0 0.0 2.0 42 69
r 0.71536 1 2 tcp 1000 ------- 0 0.0 2.0 28 43
r 0.71576 2 1 ack 40 ------- 0 2.0 0.0 23 58
r 0.715792 1 0 ack 40 ------- 0 2.0 0.0 22 55
r 0.716592 0 1 tcp 1000 ------- 0 0.0 2.0 43 71
r 0.717392 0 1 tcp 1000 ------- 0 0.0 2.0 44 72
r 0.72536 1 2 tcp 1000 ------- 0 0.0 2.0 29 44
r 0.72576 2 1 ack 40 ------- 0 2.0 0.0 24 61
r 0.725792 1 0 ack 40 ------- 0 2.0 0.0 23 58
r 0.726592 0 1 tcp 1000 ------- 0 0.0 2.0 45 74
r 0.727392 0 1 tcp 1000 ------- 0 0.0 2.0 46 75
r 0.73536 1 2 tcp 1000 ------- 0 0.0 2.0 30 45
r 0.73576 2 1 ack 40 ------- 0 2.0 0.0 25 64
r 0.735792 1 0 ack 40 ------- 0 2.0 0.0 24 61
r 0.736592 0 1 tcp 1000 ------- 0 0.0 2.0 47 77
r 0.737392 0 1 tcp 1000 ------- 0 0.0 2.0 48 78
r 0.74536 1 2 tcp 1000 ------- 0 0.0 2.0 31 53
r 0.74576 2 1 ack 40 ------- 0 2.0 0.0 26 67
r 0.745792 1 0 ack 40 ------- 0 2.0 0.0 25 64
r 0.746592 0 1 tcp 1000 ------- 0 0.0 2.0 49 80
r 0.747392 0 1 tcp 1000 ------- 0 0.0 2.0 50 81
r 0.75536 1 2 tcp 1000 ------- 0 0.0 2.0 32 54
r 0.75576 2 1 ack 40 ------- 0 2.0 0.0 27 70
r 0.755792 1 0 ack 40 ------- 0 2.0 0.0 26 67
r 0.756592 0 1 tcp 1000 ------- 0 0.0 2.0 51 83
r 0.757392 0 1 tcp 1000 ------- 0 0.0 2.0 52 84
r 0.76536 1 2 tcp 1000 ------- 0 0.0 2.0 33 56
r 0.76576 2 1 ack 40 ------- 0 2.0 0.0 28 73
r 0.765792 1 0 ack 40 ------- 0 2.0 0.0 27 70
r 0.766592 0 1 tcp 1000 ------- 0 0.0 2.0 53 86
r 0.767392 0 1 tcp 1000 ------- 0 0.0 2.0 54 87
r 0.77536 1 2 tcp 1000 ------- 0 0.0 2.0 34 57
r 0.77576 2 1 ack 40 ------- 0 2.0 0.0 29 76
r 0.775792 1 0 ack 40 ------- 0 2.0 0.0 28 73
r 0.776592 0 1 tcp 1000 ------- 0 0.0 2.0 55 89
r 0.777392 0 1 tcp 1000 ------- 0 0.0 2.0 56 90
r 0.78536 1 2 tcp 1000 ------- 0 0.0 2.0 35 59
r 0.78576 2 1 ack 40 ------- 0 2.0 0.0 30 79
r 0.785792 1 0 ack 40 ------- 0 2.0 0.0 29 76
r 0.786592 0 1 tcp 1000 ------- 0 0.0 2.0 57 92
r 0.787392 0 1 tcp 1000 ------- 0 0.0 2.0 58 93
r 0.79536 1 2 tcp 1000 ------- 0 0.0 2.0 36 60
r 0.79576 2 1 ack 40 ------- 0 2.0 0.0 31 82
r 0.795792 1 0 ack 40 ------- 0 2.0 0.0 30 79
r 0.796592 0 1 tcp 1000 ------- 0 0.0 2.0 59 95
r 0.797392 0 1 tcp 1000 ------- 0 0.0 2.0 60 96
r 0.80536 1 2 tcp 1000 ------- 0 0.0 2.0 37 62
r 0.80576 2 1 ack 40 ------- 0 2.0 0.0 32 85
r 0.805792 1 0 ack 40 ------- 0 2.0 0.0 31 82
r 0.806592 0 1 tcp 1000 ------- 0 0.0 2.0 61 98
r 0.807392 0 1 tcp 1000 ------- 0 0.0 2.0 62 99
r 0.81536 1 2 tcp 1000 ------- 0 0.0 2.0 38 63
r 0.81576 2 1 ack 40 ------- 0 2.0 0.0 33 88
r 0.815792 1 0 ack 40 ------- 0 2.0 0.0 32 85
r 0.816592 0 1 tcp 1000 ------- 0 0.0 2.0 63 101
r 0.817392 0 1 tcp 1000 ------- 0 0.0 2.0 64 102
r 0.82536 1 2 tcp 1000 ------- 0 0.0 2.0 39 65
r 0.82576 2 1 ack 40 ------- 0 2.0 0.0 34 91
r 0.825792 1 0 ack 40 ------- 0 2.0 0.0 33 88
r 0.826592 0 1 tcp 1000 ------- 0 0.0 2.0 65 104
r 0.827392 0 1 tcp 1000 ------- 0 0.0 2.0 66 105
r 0.83536 1 2 tcp 1000 ------- 0 0.0 2.0 40 66
r 0.83576 2 1 ack 40 ------- 0 2.0 0.0 35 94
r 0.835792 1 0 ack 40 ------- 0 2.0 0.0 34 91
r 0.836592 0 1 tcp 1000 ------- 0 0.0 2.0 67 107
r 0.837392 0 1 tcp 1000 ------- 0 0.0 2.0 68 108
r 0.84536 1 2 tcp 1000 ------- 0 0.0 2.0 41 68
r 0.84576 2 1 ack 40 ------- 0 2.0 0.0 36 97
r 0.845792 1 0 ack 40 ------- 0 2.0 0.0 35 94
r 0.846592 0 1 tcp 1000 ------- 0 0.0 2.0 69 110
r 0.847392 0 1 tcp 1000 ------- 0 0.0 2.0 70 111
r 0.85536 1 2 tcp 1000 ------- 0 0.0 2.0 42 69
r 0.85576 2 1 ack 40 ------- 0 2.0 0.0 37 100
r 0.855792 1 0 ack 40 ------- 0 2.0 0.0 36 97
r 0.856592 0 1 tcp 1000 ------- 0 0.0 2.0 71 113
r 0.857392 0 1 tcp 1000 ------- 0 0.0 2.0 72 114
r 0.86536 1 2 tcp 1000 ------- 0 0.0 2.0 43 71
r 0.86576 2 1 ack 40 ------- 0 2.0 0.0 38 103
r 0.865792 1 0 ack 40 ------- 0 2.0 0.0 37 100
r 0.866592 0 1 tcp 1000 ------- 0 0.0 2.0 73 116
r 0.867392 0 1 tcp 1000 ------- 0 0.0 2.0 74 117
r 0.87536 1 2 tcp 1000 ------- 0 0.0 2.0 44 72
r 0.87576 2 1 ack 40 ------- 0 2.0 0.0 39 106
r 0.875792 1 0 ack 40 ------- 0 2.0 0.0 38 103
r 0.876592 0 1 tcp 1000 ------- 0 0.0 2.0 75 119
r 0.877392 0 1 tcp 1000 ------- 0 0.0 2.0 76 120
r 0.88536 1 2 tcp 1000 ------- 0 0.0 2.0 45 74
r 0.88576 2 1 ack 40 ------- 0 2.0 0.0 40 109
r 0.885792 1 0 ack 40 ------- 0 2.0 0.0 39 106
r 0.886592 0 1 tcp 1000 ------- 0 0.0 2.0 77 122
r 0.887392 0 1 tcp 1000 ------- 0 0.0 2.0 78 123
r 0.89536 1 2 tcp 1000 ------- 0 0.0 2.0 46 75
r 0.89576 2 1 ack 40 ------- 0 2.0 0.0 41 112
r 0.895792 1 0 ack 40 ------- 0 2.0 0.0 40 109
r 0.896592 0 1 tcp 1000 ------- 0 0.0 2.0 79 125
r 0.897392 0 1 tcp 1000 ------- 0 0.0 2.0 80 126
r 0.90536 1 2 tcp 1000 ------- 0 0.0 2.0 47 77
r 0.90576 2 1 ack 40 ------- 0 2.0 0.0 42 115
r 0.905792 1 0 ack 40 ------- 0 2.0 0.0 41 112
r 0.906592 0 1 tcp 1000 ------- 0 0.0 2.0 81 128
r 0.907392 0 1 tcp 1000 ------- 0 0.0 2.0 82 129
r 0.91536 1 2 tcp 1000 ------- 0 0.0 2.0 49 80
r 0.91576 2 1 ack 40 ------- 0 2.0 0.0 43 118
r 0.915792 1 0 ack 40 ------- 0 2.0 0.0 42 115
r 0.916592 0 1 tcp 1000 ------- 0 0.0 2.0 83 131
r 0.917392 0 1 tcp 1000 ------- 0 0.0 2.0 84 132
r 0.92536 1 2 tcp 1000 ------- 0 0.0 2.0 51 83
r 0.92576 2 1 ack 40 ------- 0 2.0 0.0 44 121
r 0.925792 1 0 ack 40 ------- 0 2.0 0.0 43 118
r 0.926592 0 1 tcp 1000 ------- 0 0.0 2.0 85 134
r 0.927392 0 1 tcp 1000 ------- 0 0.0 2.0 86 135
r 0.93536 1 2 tcp 1000 ------- 0 0.0 2.0 53 86
r 0.93576 2 1 ack 40 ------- 0 2.0 0.0 45 124
r 0.935792 1 0 ack 40 ------- 0 2.0 0.0 44 121
r 0.936592 0 1 tcp 1000 ------- 0 0.0 2.0 87 137
r 0.937392 0 1 tcp 1000 ------- 0 0.0 2.0 88 138
r 0.94536 1 2 tcp 1000 ------- 0 0.0 2.0 55 89
r 0.94576 2 1 ack 40 ------- 0 2.0 0.0 46 127
r 0.945792 1 0 ack 40 ------- 0 2.0 0.0 45 124
r 0.946592 0 1 tcp 1000 ------- 0 0.0 2.0 89 140
r 0.947392 0 1 tcp 1000 ------- 0 0.0 2.0 90 141
r 0.95536 1 2 tcp 1000 ------- 0 0.0 2.0 57 92
r 0.95576 2 1 ack 40 ------- 0 2.0 0.0 47 130
r 0.955792 1 0 ack 40 ------- 0 2.0 0.0 46 127
r 0.956592 0 1 tcp 1000 ------- 0 0.0 2.0 91 143
r 0.957392 0 1 tcp 1000 ------- 0 0.0 2.0 92 144
r 0.96536 1 2 tcp 1000 ------- 0 0.0 2.0 59 95
r 0.96576 2 1 ack 40 ------- 0 2.0 0.0 47 133
r 0.965792 1 0 ack 40 ------- 0 2.0 0.0 47 130
r 0.966592 0 1 tcp 1000 ------- 0 0.0 2.0 93 146
r 0.967392 0 1 tcp 1000 ------- 0 0.0 2.0 94 147
r 0.97536 1 2 tcp 1000 ------- 0 0.0 2.0 61 98
r 0.97576 2 1 ack 40 ------- 0 2.0 0.0 47 136
r 0.975792 1 0 ack 40 ------- 0 2.0 0.0 47 133
r 0.976592 0 1 tcp 1000 ------- 0 0.0 2.0 95 149
r 0.977392 0 1 tcp 1000 ------- 0 0.0 2.0 96 150
r 0.98536 1 2 tcp 1000 ------- 0 0.0 2.0 63 101
r 0.98576 2 1 ack 40 ------- 0 2.0 0.0 47 139
r 0.985792 1 0 ack 40 ------- 0 2.0 0.0 47 136
r 0.986592 0 1 tcp 1000 ------- 0 0.0 2.0 97 152
r 0.99536 1 2 tcp 1000 ------- 0 0.0 2.0 65 104
r 0.99576 2 1 ack 40 ------- 0 2.0 0.0 47 142
r 0.995792 1 0 ack 40 ------- 0 2.0 0.0 47 139
r 0.996592 0 1 tcp 1000 ------- 0 0.0 2.0 98 154
r 1.00536 1 2 tcp 1000 ------- 0 0.0 2.0 67 107
r 1.00576 2 1 ack 40 ------- 0 2.0 0.0 47 145
r 1.005792 1 0 ack 40 ------- 0 2.0 0.0 47 142
r 1.006592 0 1 tcp 1000 ---A--- 0 0.0 2.0 48 156
r 1.01536 1 2 tcp 1000 ------- 0 0.0 2.0 69 110
r 1.01576 2 1 ack 40 ------- 0 2.0 0.0 47 148
r 1.015792 1 0 ack 40 ------- 0 2.0 0.0 47 145
r 1.02536 1 2 tcp 1000 ------- 0 0.0 2.0 71 113
r 1.02576 2 1 ack 40 ------- 0 2.0 0.0 47 151
r 1.025792 1 0 ack 40 ------- 0 2.0 0.0 47 148
r 1.03536 1 2 tcp 1000 ------- 0 0.0 2.0 73 116
r 1.03576 2 1 ack 40 ------- 0 2.0 0.0 47 153
r 1.035792 1 0 ack 40 ------- 0 2.0 0.0 47 151
r 1.04536 1 2 tcp 1000 ------- 0 0.0 2.0 75 119
r 1.04576 2 1 ack 40 ------- 0 2.0 0.0 47 155
r 1.045792 1 0 ack 40 ------- 0 2.0 0.0 47 153
r 1.05536 1 2 tcp 1000 ------- 0 0.0 2.0 77 122
r 1.05576 2 1 ack 40 ------- 0 2.0 0.0 47 157
r 1.055792 1 0 ack 40 ------- 0 2.0 0.0 47 155
r 1.06536 1 2 tcp 1000 ------- 0 0.0 2.0 79 125
r 1.06576 2 1 ack 40 ------- 0 2.0 0.0 47 158
r 1.065792 1 0 ack 40 ------- 0 2.0 0.0 47 157
r 1.07536 1 2 tcp 1000 ------- 0 0.0 2.0 81 128
r 1.07576 2 1 ack 40 ------- 0 2.0 0.0 47 159
r 1.075792 1 0 ack 40 ------- 0 2.0 0.0 47 158
r 1.08536 1 2 tcp 1000 ------- 0 0.0 2.0 83 131
r 1.08576 2 1 ack 40 ------- 0 2.0 0.0 47 160
r 1.085792 1 0 ack 40 ------- 0 2.0 0.0 47 159
r 1.09536 1 2 tcp 1000 ------- 0 0.0 2.0 85 134
r 1.09576 2 1 ack 40 ------- 0 2.0 0.0 47 161
r 1.095792 1 0 ack 40 ------- 0 2.0 0.0 47 160
r 1.10536 1 2 tcp 1000 ------- 0 0.0 2.0 87 137
r 1.10576 2 1 ack 40 ------- 0 2.0 0.0 47 162
r 1.105792 1 0 ack 40 ------- 0 2.0 0.0 47 161
r 1.11536 1 2 tcp 1000 ------- 0 0.0 2.0 89 140
r 1.11576 2 1 ack 40 ------- 0 2.0 0.0 47 163
r 1.115792 1 0 ack 40 ------- 0 2.0 0.0 47 162
r 1.12536 1 2 tcp 1000 ------- 0 0.0 2.0 91 143
r 1.12576 2 1 ack 40 ------- 0 2.0 0.0 47 164
r 1.125792 1 0 ack 40 ------- 0 2.0 0.0 47 163
r 1.13536 1 2 tcp 1000 ------- 0 0.0 2.0 93 146
r 1.13576 2 1 ack 40 ------- 0 2.0 0.0 47 165
r 1.135792 1 0 ack 40 ------- 0 2.0 0.0 47 164
r 1.14536 1 2 tcp 1000 ------- 0 0.0 2.0 95 149
r 1.14576 2 1 ack 40 ------- 0 2.0 0.0 47 166
r 1.145792 1 0 ack 40 ------- 0 2.0 0.0 47 165
r 1.15536 1 2 tcp 1000 ------- 0 0.0 2.0 97 152
r 1.15576 2 1 ack 40 ------- 0 2.0 0.0 47 167
r 1.155792 1 0 ack 40 ------- 0 2.0 0.0 47 166
r 1.16536 1 2 tcp 1000 ------- 0 0.0 2.0 98 154
r 1.16576 2 1 ack 40 ------- 0 2.0 0.0 47 168
r 1.165792 1 0 ack 40 ------- 0 2.0 0.0 47 167
r 1.17536 1 2 tcp 1000 ---A--- 0 0.0 2.0 48 156
r 1.17576 2 1 ack 40 ------- 0 2.0 0.0 47 169
r 1.175792 1 0 ack 40 ------- 0 2.0 0.0 47 168
r 1.18576 2 1 ack 40 ------- 0 2.0 0.0 47 170
r 1.185792 1 0 ack 40 ------- 0 2.0 0.0 47 169
r 1.19576 2 1 ack 40 ------- 0 2.0 0.0 47 171
r 1.195792 1 0 ack 40 ------- 0 2.0 0.0 47 170
r 1.20576 2 1 ack 40 ------- 0 2.0 0.0 47 172
r 1.205792 1 0 ack 40 ------- 0 2.0 0.0 47 171
r 1.21576 2 1 ack 40 ------- 0 2.0 0.0 47 173
r 1.215792 1 0 ack 40 ------- 0 2.0 0.0 47 172
r 1.22576 2 1 ack 40 ------- 0 2.0 0.0 49 174
r 1.225792 1 0 ack 40 ------- 0 2.0 0.0 47 173
r 1.235792 1 0 ack 40 ------- 0 2.0 0.0 49 174
r 1.246592 0 1 tcp 1000 ------- 0 0.0 2.0 50 175
r 1.247392 0 1 tcp 1000 ------- 0 0.0 2.0 51 176
r 1.306592 1 2 tcp 1000 ------- 0 0.0 2.0 50 175
r 1.316592 1 2 tcp 1000 ------- 0 0.0 2.0 51 176
r 1.356992 2 1 ack 40 ------- 0 2.0 0.0 51 177
r 1.366992 2 1 ack 40 ------- 0 2.0 0.0 51 178
r 1.367024 1 0 ack 40 ------- 0 2.0 0.0 51 177
r 1.377024 1 0 ack 40 ------- 0 2.0 0.0 51 178
r 1.377824 0 1 tcp 1000 ------- 0 0.0 2.0 52 179
r 1.378624 0 1 tcp 1000 ------- 0 0.0 2.0 53 180
r 1.379424 0 1 tcp 1000 ------- 0 0.0 2.0 54 181
r 1.387824 0 1 tcp 1000 ------- 0 0.0 2.0 55 182
r 1.437824 1 2 tcp 1000 ------- 0 0.0 2.0 52 179
r 1.447824 1 2 tcp 1000 ------- 0 0.0 2.0 53 180
r 1.457824 1 2 tcp 1000 ------- 0 0.0 2.0 54 181
r 1.467824 1 2 tcp 1000 ------- 0 0.0 2.0 55 182
r 1.488224 2 1 ack 40 ------- 0 2.0 0.0 53 183
r 1.498224 2 1 ack 40 ------- 0 2.0 0.0 53 184
r 1.498256 1 0 ack 40 ------- 0 2.0 0.0 53 183
r 1.508224 2 1 ack 40 ------- 0 2.0 0.0 55 185
r 1.508256 1 0 ack 40 ------- 0 2.0 0.0 53 184
r 1.509056 0 1 tcp 1000 ------- 0 0.0 2.0 56 187
r 1.509856 0 1 tcp 1000 ------- 0 0.0 2.0 57 188
r 1.518224 2 1 ack 40 ------- 0 2.0 0.0 55 186
r 1.518256 1 0 ack 40 ------- 0 2.0 0.0 55 185
r 1.519056 0 1 tcp 1000 ------- 0 0.0 2.0 58 189
r 1.528256 1 0 ack 40 ------- 0 2.0 0.0 55 186
r 1.529056 0 1 tcp 1000 ------- 0 0.0 2.0 59 190
r 1.529856 0 1 tcp 1000 ------- 0 0.0 2.0 60 191
r 1.539056 0 1 tcp 1000 ------- 0 0.0 2.0 61 192
r 1.569056 1 2 tcp 1000 ------- 0 0.0 2.0 56 187
r 1.579056 1 2 tcp 1000 ------- 0 0.0 2.0 57 188
r 1.589056 1 2 tcp 1000 ------- 0 0.0 2.0 58 189
r 1.599056 1 2 tcp 1000 ------- 0 0.0 2.0 59 190
r 1.609056 1 2 tcp 1000 ------- 0 0.0 2.0 60 191
r 1.619056 1 2 tcp 1000 ------- 0 0.0 2.0 61 192
r 1.619456 2 1 ack 40 ------- 0 2.0 0.0 57 193
r 1.629456 2 1 ack 40 ------- 0 2.0 0.0 57 194
r 1.629488 1 0 ack 40 ------- 0 2.0 0.0 57 193
r 1.639456 2 1 ack 40 ------- 0 2.0 0.0 59 195
r 1.639488 1 0 ack 40 ------- 0 2.0 0.0 57 194
r 1.640288 0 1 tcp 1000 ------- 0 0.0 2.0 62 199
r 1.641088 0 1 tcp 1000 ------- 0 0.0 2.0 63 200
r 1.649456 2 1 ack 40 ------- 0 2.0 0.0 59 196
r 1.649488 1 0 ack 40 ------- 0 2.0 0.0 59 195
r 1.650288 0 1 tcp 1000 ------- 0 0.0 2.0 64 201
r 1.659456 2 1 ack 40 ------- 0 2.0 0.0 61 197
r 1.659488 1 0 ack 40 ------- 0 2.0 0.0 59 196
r 1.660288 0 1 tcp 1000 ------- 0 0.0 2.0 65 202
r 1.661088 0 1 tcp 1000 ------- 0 0.0 2.0 66 203
r 1.669456 2 1 ack 40 ------- 0 2.0 0.0 61 198
r 1.669488 1 0 ack 40 ------- 0 2.0 0.0 61 197
r 1.670288 0 1 tcp 1000 ------- 0 0.0 2.0 67 204
r 1.679488 1 0 ack 40 ------- 0 2.0 0.0 61 198
r 1.680288 0 1 tcp 1000 ------- 0 0.0 2.0 68 205
r 1.681088 0 1 tcp 1000 ------- 0 0.0 2.0 69 206
r 1.690288 0 1 tcp 1000 ------- 0 0.0 2.0 70 207
r 1.700288 1 2 tcp 1000 ------- 0 0.0 2.0 62 199
r 1.710288 1 2 tcp 1000 ------- 0 0.0 2.0 63 200
r 1.720288 1 2 tcp 1000 ------- 0 0.0 2.0 64 201
r 1.730288 1 2 tcp 1000 ------- 0 0.0 2.0 65 202
r 1.740288 1 2 tcp 1000 ------- 0 0.0 2.0 66 203
r 1.750288 1 2 tcp 1000 ------- 0 0.0 2.0 67 204
r 1.750688 2 1 ack 40 ------- 0 2.0 0.0 63 208
r 1.760288 1 2 tcp 1000 ------- 0 0.0 2.0 68 205
r 1.760688 2 1 ack 40 ------- 0 2.0 0.0 63 209
r 1.76072 1 0 ack 40 ------- 0 2.0 0.0 63 208
r 1.770288 1 2 tcp 1000 ------- 0 0.0 2.0 69 206
r 1.770688 2 1 ack 40 ------- 0 2.0 0.0 65 210
r 1.77072 1 0 ack 40 ------- 0 2.0 0.0 63 209
r 1.77152 0 1 tcp 1000 ------- 0 0.0 2.0 71 215
r 1.77232 0 1 tcp 1000 ------- 0 0.0 2.0 72 216
r 1.780288 1 2 tcp 1000 ------- 0 0.0 2.0 70 207
r 1.780688 2 1 ack 40 ------- 0 2.0 0.0 65 211
r 1.78072 1 0 ack 40 ------- 0 2.0 0.0 65 210
r 1.78152 0 1 tcp 1000 ------- 0 0.0 2.0 73 218
r 1.790688 2 1 ack 40 ------- 0 2.0 0.0 67 212
r 1.79072 1 0 ack 40 ------- 0 2.0 0.0 65 211
r 1.79152 0 1 tcp 1000 ------- 0 0.0 2.0 74 220
r 1.79232 0 1 tcp 1000 ------- 0 0.0 2.0 75 221
r 1.800688 2 1 ack 40 ------- 0 2.0 0.0 67 213
r 1.80072 1 0 ack 40 ------- 0 2.0 0.0 67 212
r 1.80152 0 1 tcp 1000 ------- 0 0.0 2.0 76 222
r 1.810688 2 1 ack 40 ------- 0 2.0 0.0 69 214
r 1.81072 1 0 ack 40 ------- 0 2.0 0.0 67 213
r 1.81152 0 1 tcp 1000 ------- 0 0.0 2.0 77 223
r 1.81232 0 1 tcp 1000 ------- 0 0.0 2.0 78 224
r 1.820688 2 1 ack 40 ------- 0 2.0 0.0 69 217
r 1.82072 1 0 ack 40 ------- 0 2.0 0.0 69 214
r 1.82152 0 1 tcp 1000 ------- 0 0.0 2.0 79 225
r 1.830688 2 1 ack 40 ------- 0 2.0 0.0 71 219
r 1.83072 1 0 ack 40 ------- 0 2.0 0.0 69 217
r 1.83152 1 2 tcp 1000 ------- 0 0.0 2.0 71 215
r 1.83152 0 1 tcp 1000 ------- 0 0.0 2.0 80 226
r 1.83232 0 1 tcp 1000 ------- 0 0.0 2.0 81 227
r 1.84072 1 0 ack 40 ------- 0 2.0 0.0 71 219
r 1.84152 1 2 tcp 1000 ------- 0 0.0 2.0 72 216
r 1.84152 0 1 tcp 1000 ------- 0 0.0 2.0 82 228
r 1.85152 1 2 tcp 1000 ------- 0 0.0 2.0 73 218
r 1.85152 0 1 tcp 1000 ------- 0 0.0 2.0 83 230
r 1.85232 0 1 tcp 1000 ------- 0 0.0 2.0 84 231
r 1.86152 1 2 tcp 1000 ------- 0 0.0 2.0 74 220
r 1.87152 1 2 tcp 1000 ------- 0 0.0 2.0 75 221
r 1.88152 1 2 tcp 1000 ------- 0 0.0 2.0 76 222
r 1.88192 2 1 ack 40 ------- 0 2.0 0.0 71 229
r 1.89152 1 2 tcp 1000 ------- 0 0.0 2.0 77 223
r 1.89192 2 1 ack 40 ------- 0 2.0 0.0 73 232
r 1.891952 1 0 ack 40 ------- 0 2.0 0.0 71 229
r 1.90152 1 2 tcp 1000 ------- 0 0.0 2.0 78 224
r 1.90192 2 1 ack 40 ------- 0 2.0 0.0 73 233
r 1.901952 1 0 ack 40 ------- 0 2.0 0.0 73 232
r 1.902752 0 1 tcp 1000 ------- 0 0.0 2.0 85 238
r 1.91152 1 2 tcp 1000 ------- 0 0.0 2.0 79 225
r 1.91192 2 1 ack 40 ------- 0 2.0 0.0 75 234
r 1.911952 1 0 ack 40 ------- 0 2.0 0.0 73 233
r 1.912752 0 1 tcp 1000 ------- 0 0.0 2.0 86 240
r 1.913552 0 1 tcp 1000 ------- 0 0.0 2.0 87 241
r 1.92152 1 2 tcp 1000 ------- 0 0.0 2.0 80 226
r 1.92192 2 1 ack 40 ------- 0 2.0 0.0 75 235
r 1.921952 1 0 ack 40 ------- 0 2.0 0.0 75 234
r 1.922752 0 1 tcp 1000 ------- 0 0.0 2.0 88 243
r 1.93152 1 2 tcp 1000 ------- 0 0.0 2.0 81 227
r 1.93192 2 1 ack 40 ------- 0 2.0 0.0 77 236
r 1.931952 1 0 ack 40 ------- 0 2.0 0.0 75 235
r 1.932752 0 1 tcp 1000 ------- 0 0.0 2.0 89 245
r 1.933552 0 1 tcp 1000 ------- 0 0.0 2.0 90 246
r 1.94152 1 2 tcp 1000 ------- 0 0.0 2.0 82 228
r 1.94192 2 1 ack 40 ------- 0 2.0 0.0 77 237
r 1.941952 1 0 ack 40 ------- 0 2.0 0.0 77 236
r 1.942752 0 1 tcp 1000 ------- 0 0.0 2.0 91 248
r 1.95152 1 2 tcp 1000 ------- 0 0.0 2.0 83 230
r 1.95192 2 1 ack 40 ------- 0 2.0 0.0 79 239
r 1.951952 1 0 ack 40 ------- 0 2.0 0.0 77 237
r 1.952752 0 1 tcp 1000 ------- 0 0.0 2.0 92 250
r 1.953552 0 1 tcp 1000 ------- 0 0.0 2.0 93 251
r 1.96152 1 2 tcp 1000 ------- 0 0.0 2.0 84 231
r 1.96192 2 1 ack 40 ------- 0 2.0 0.0 79 242
r 1.961952 1 0 ack 40 ------- 0 2.0 0.0 79 239
r 1.962752 0 1 tcp 1000 ------- 0 0.0 2.0 94 253
r 1.97152 1 2 tcp 1000 ------- 0 0.0 2.0 85 238
r 1.97192 2 1 ack 40 ------- 0 2.0 0.0 81 244
r 1.971952 1 0 ack 40 ------- 0 2.0 0.0 79 242
r 1.972752 0 1 tcp 1000 ------- 0 0.0 2.0 95 255
r 1.973552 0 1 tcp 1000 ------- 0 0.0 2.0 96 256
r 1.98152 1 2 tcp 1000 ------- 0 0.0 2.0 86 240
r 1.98192 2 1 ack 40 ------- 0 2.0 0.0 81 247
r 1.981952 1 0 ack 40 ------- 0 2.0 0.0 81 244
r 1.982752 0 1 tcp 1000 ------- 0 0.0 2.0 97 258
r 1.99152 1 2 tcp 1000 ------- 0 0.0 2.0 87 241
r 1.99192 2 1 ack 40 ------- 0 2.0 0.0 83 249
r 1.991952 1 0 ack 40 ------- 0 2.0 0.0 81 247
r 1.992752 0 1 tcp 1000 ------- 0 0.0 2.0 98 260
r 1.993552 0 1 tcp 1000 ------- 0 0.0 2.0 99 261
r 2.00152 1 2 tcp 1000 ------- 0 0.0 2.0 88 243
r 2.00192 2 1 ack 40 ------- 0 2.0 0.0 83 252
r 2.001952 1 0 ack 40 ------- 0 2.0 0.0 83 249
r 2.002752 0 1 tcp 1000 ------- 0 0.0 2.0 100 263
r 2.01152 1 2 tcp 1000 ------- 0 0.0 2.0 89 245
r 2.01192 2 1 ack 40 ------- 0 2.0 0.0 85 254
r 2.011952 1 0 ack 40 ------- 0 2.0 0.0 83 252
r 2.012752 0 1 tcp 1000 ------- 0 0.0 2.0 101 265
r 2.013552 0 1 tcp 1000 ------- 0 0.0 2.0 102 266
r 2.02152 1 2 tcp 1000 ------- 0 0.0 2.0 90 246
r 2.02192 2 1 ack 40 ------- 0 2.0 0.0 85 257
r 2.021952 1 0 ack 40 ------- 0 2.0 0.0 85 254
r 2.022752 0 1 tcp 1000 ------- 0 0.0 2.0 103 268
r 2.03152 1 2 tcp 1000 ------- 0 0.0 2.0 91 248
r 2.03192 2 1 ack 40 ------- 0 2.0 0.0 87 259
r 2.031952 1 0 ack 40 ------- 0 2.0 0.0 85 257
r 2.032752 0 1 tcp 1000 ------- 0 0.0 2.0 104 270
r 2.033552 0 1 tcp 1000 ------- 0 0.0 2.0 105 271
r 2.04152 1 2 tcp 1000 ------- 0 0.0 2.0 92 250
r 2.04192 2 1 ack 40 ------- 0 2.0 0.0 87 262
r 2.041952 1 0 ack 40 ------- 0 2.0 0.0 87 259
r 2.042752 0 1 tcp 1000 ------- 0 0.0 2.0 106 273
r 2.05152 1 2 tcp 1000 ------- 0 0.0 2.0 93 251
r 2.05192 2 1 ack 40 ------- 0 2.0 0.0 89 264
r 2.051952 1 0 ack 40 ------- 0 2.0 0.0 87 262
r 2.052752 0 1 tcp 1000 ------- 0 0.0 2.0 107 275
r 2.053552 0 1 tcp 1000 ------- 0 0.0 2.0 108 276
r 2.06152 1 2 tcp 1000 ------- 0 0.0 2.0 94 253
r 2.06192 2 1 ack 40 ------- 0 2.0 0.0 89 267
r 2.061952 1 0 ack 40 ------- 0 2.0 0.0 89 264
r 2.062752 0 1 tcp 1000 ------- 0 0.0 2.0 109 278
r 2.07152 1 2 tcp 1000 ------- 0 0.0 2.0 95 255
r 2.07192 2 1 ack 40 ------- 0 2.0 0.0 91 269
r 2.071952 1 0 ack 40 ------- 0 2.0 0.0 89 267
r 2.072752 0 1 tcp 1000 ------- 0 0.0 2.0 110 280
r 2.073552 0 1 tcp 1000 ------- 0 0.0 2.0 111 281
r 2.08152 1 2 tcp 1000 ------- 0 0.0 2.0 96 256
r 2.08192 2 1 ack 40 ------- 0 2.0 0.0 91 272
r 2.081952 1 0 ack 40 ------- 0 2.0 0.0 91 269
r 2.082752 0 1 tcp 1000 ------- 0 0.0 2.0 112 283
r 2.09152 1 2 tcp 1000 ------- 0 0.0 2.0 97 258
r 2.09192 2 1 ack 40 ------- 0 2.0 0.0 93 274
r 2.091952 1 0 ack 40 ------- 0 2.0 0.0 91 272
r 2.092752 0 1 tcp 1000 ------- 0 0.0 2.0 113 285
r 2.093552 0 1 tcp 1000 ------- 0 0.0 2.0 114 286
r 2.10152 1 2 tcp 1000 ------- 0 0.0 2.0 98 260
r 2.10192 2 1 ack 40 ------- 0 2.0 0.0 93 277
r 2.101952 1 0 ack 40 ------- 0 2.0 0.0 93 274
r 2.102752 0 1 tcp 1000 ------- 0 0.0 2.0 115 288
r 2.11152 1 2 tcp 1000 ------- 0 0.0 2.0 99 261
r 2.11192 2 1 ack 40 ------- 0 2.0 0.0 95 279
r 2.111952 1 0 ack 40 ------- 0 2.0 0.0 93 277
r 2.112752 0 1 tcp 1000 ------- 0 0.0 2.0 116 290
r 2.113552 0 1 tcp 1000 ------- 0 0.0 2.0 117 291
r 2.12152 1 2 tcp 1000 ------- 0 0.0 2.0 100 263
r 2.12192 2 1 ack 40 ------- 0 2.0 0.0 95 282
r 2.121952 1 0 ack 40 ------- 0 2.0 0.0 95 279
r 2.122752 0 1 tcp 1000 ------- 0 0.0 2.0 118 293
r 2.13152 1 2 tcp 1000 ------- 0 0.0 2.0 101 265
r 2.13192 2 1 ack 40 ------- 0 2.0 0.0 98 284
r 2.131952 1 0 ack 40 ------- 0 2.0 0.0 95 282
r 2.132752 0 1 tcp 1000 ------- 0 0.0 2.0 119 295
r 2.14152 1 2 tcp 1000 ------- 0 0.0 2.0 102 266
r 2.14192 2 1 ack 40 ------- 0 2.0 0.0 98 287
r 2.141952 1 0 ack 40 ------- 0 2.0 0.0 98 284
r 2.142752 0 1 tcp 1000 ------- 0 0.0 2.0 120 297
r 2.15152 1 2 tcp 1000 ------- 0 0.0 2.0 103 268
r 2.15192 2 1 ack 40 ------- 0 2.0 0.0 98 289
r 2.151952 1 0 ack 40 ------- 0 2.0 0.0 98 287
r 2.152752 0 1 tcp 1000 ------- 0 0.0 2.0 121 299
r 2.153552 0 1 tcp 1000 ------- 0 0.0 2.0 122 300
r 2.16152 1 2 tcp 1000 ------- 0 0.0 2.0 104 270
r 2.16192 2 1 ack 40 ------- 0 2.0 0.0 99 292
r 2.161952 1 0 ack 40 ------- 0 2.0 0.0 98 289
r 2.162752 0 1 tcp 1000 ------- 0 0.0 2.0 123 302
r 2.17152 1 2 tcp 1000 ------- 0 0.0 2.0 105 271
r 2.17192 2 1 ack 40 ------- 0 2.0 0.0 100 294
r 2.171952 1 0 ack 40 ------- 0 2.0 0.0 99 292
r 2.172752 0 1 tcp 1000 ------- 0 0.0 2.0 124 304
r 2.18152 1 2 tcp 1000 ------- 0 0.0 2.0 106 273
r 2.18192 2 1 ack 40 ------- 0 2.0 0.0 101 296
r 2.181952 1 0 ack 40 ------- 0 2.0 0.0 100 294
r 2.19152 1 2 tcp 1000 ------- 0 0.0 2.0 107 275
r 2.19192 2 1 ack 40 ------- 0 2.0 0.0 102 298
r 2.191952 1 0 ack 40 ------- 0 2.0 0.0 101 296
r 2.20152 1 2 tcp 1000 ------- 0 0.0 2.0 108 276
r 2.20192 2 1 ack 40 ------- 0 2.0 0.0 103 301
r 2.201952 1 0 ack 40 ------- 0 2.0 0.0 102 298
r 2.202752 0 1 tcp 1000 ------- 0 0.0 2.0 125 308
r 2.21152 1 2 tcp 1000 ------- 0 0.0 2.0 109 278
r 2.21192 2 1 ack 40 ------- 0 2.0 0.0 104 303
r 2.211952 1 0 ack 40 ------- 0 2.0 0.0 103 301
r 2.212752 0 1 tcp 1000 ------- 0 0.0 2.0 126 310
r 2.22152 1 2 tcp 1000 ------- 0 0.0 2.0 110 280
r 2.22192 2 1 ack 40 ------- 0 2.0 0.0 105 305
r 2.221952 1 0 ack 40 ------- 0 2.0 0.0 104 303
r 2.222752 0 1 tcp 1000 ------- 0 0.0 2.0 127 312
r 2.23152 1 2 tcp 1000 ------- 0 0.0 2.0 111 281
r 2.23192 2 1 ack 40 ------- 0 2.0 0.0 106 306
r 2.231952 1 0 ack 40 ------- 0 2.0 0.0 105 305
r 2.232752 0 1 tcp 1000 ------- 0 0.0 2.0 128 314
r 2.24152 1 2 tcp 1000 ------- 0 0.0 2.0 112 283
r 2.24192 2 1 ack 40 ------- 0 2.0 0.0 107 307
r 2.241952 1 0 ack 40 ------- 0 2.0 0.0 106 306
r 2.242752 0 1 tcp 1000 ------- 0 0.0 2.0 129 316
r 2.25152 1 2 tcp 1000 ------- 0 0.0 2.0 113 285
r 2.25192 2 1 ack 40 ------- 0 2.0 0.0 108 309
r 2.251952 1 0 ack 40 ------- 0 2.0 0.0 107 307
r 2.252752 0 1 tcp 1000 ------- 0 0.0 2.0 130 318
r 2.26152 1 2 tcp 1000 ------- 0 0.0 2.0 114 286
r 2.26192 2 1 ack 40 ------- 0 2.0 0.0 109 311
r 2.261952 1 0 ack 40 ------- 0 2.0 0.0 108 309
r 2.262752 0 1 tcp 1000 ------- 0 0.0 2.0 131 320
r 2.27152 1 2 tcp 1000 ------- 0 0.0 2.0 115 288
r 2.27192 2 1 ack 40 ------- 0 2.0 0.0 110 313
r 2.271952 1 0 ack 40 ------- 0 2.0 0.0 109 311
r 2.272752 0 1 tcp 1000 ------- 0 0.0 2.0 132 322
r 2.28152 1 2 tcp 1000 ------- 0 0.0 2.0 116 290
r 2.28192 2 1 ack 40 ------- 0 2.0 0.0 111 315
r 2.281952 1 0 ack 40 ------- 0 2.0 0.0 110 313
r 2.282752 0 1 tcp 1000 ------- 0 0.0 2.0 133 324
r 2.29152 1 2 tcp 1000 ------- 0 0.0 2.0 118 293
r 2.29192 2 1 ack 40 ------- 0 2.0 0.0 112 317
r 2.291952 1 0 ack 40 ------- 0 2.0 0.0 111 315
r 2.292752 0 1 tcp 1000 ------- 0 0.0 2.0 134 326
r 2.30152 1 2 tcp 1000 ------- 0 0.0 2.0 119 295
r 2.30192 2 1 ack 40 ------- 0 2.0 0.0 113 319
r 2.301952 1 0 ack 40 ------- 0 2.0 0.0 112 317
r 2.302752 0 1 tcp 1000 ------- 0 0.0 2.0 135 328
r 2.31152 1 2 tcp 1000 ------- 0 0.0 2.0 120 297
r 2.31192 2 1 ack 40 ------- 0 2.0 0.0 114 321
r 2.311952 1 0 ack 40 ------- 0 2.0 0.0 113 319
r 2.312752 0 1 tcp 1000 ------- 0 0.0 2.0 136 330
r 2.32152 1 2 tcp 1000 ------- 0 0.0 2.0 121 299
r 2.32192 2 1 ack 40 ------- 0 2.0 0.0 115 323
r 2.321952 1 0 ack 40 ------- 0 2.0 0.0 114 321
r 2.322752 0 1 tcp 1000 ------- 0 0.0 2.0 137 332
r 2.33152 1 2 tcp 1000 ------- 0 0.0 2.0 123 302
r 2.33192 2 1 ack 40 ------- 0 2.0 0.0 116 325
r 2.331952 1 0 ack 40 ------- 0 2.0 0.0 115 323
r 2.332752 0 1 tcp 1000 ------- 0 0.0 2.0 138 334
r 2.34152 1 2 tcp 1000 ------- 0 0.0 2.0 124 304
r 2.34192 2 1 ack 40 ------- 0 2.0 0.0 116 327
r 2.341952 1 0 ack 40 ------- 0 2.0 0.0 116 325
r 2.342752 0 1 tcp 1000 ------- 0 0.0 2.0 139 336
r 2.35152 1 2 tcp 1000 ------- 0 0.0 2.0 125 308
r 2.35192 2 1 ack 40 ------- 0 2.0 0.0 116 329
r 2.351952 1 0 ack 40 ------- 0 2.0 0.0 116 327
r 2.352752 0 1 tcp 1000 ------- 0 0.0 2.0 140 338
r 2.36152 1 2 tcp 1000 ------- 0 0.0 2.0 126 310
r 2.36192 2 1 ack 40 ------- 0 2.0 0.0 116 331
r 2.361952 1 0 ack 40 ------- 0 2.0 0.0 116 329
r 2.362752 0 1 tcp 1000 ------- 0 0.0 2.0 141 340
r 2.37152 1 2 tcp 1000 ------- 0 0.0 2.0 127 312