d 0.737392 1 2 tcp 1000 ------- 0 0.0 2.0 48 78
d 0.747392 1 2 tcp 1000 ------- 0 0.0 2.0 50 81
d 0.757392 1 2 tcp 1000 ------- 0 0.0 2.0 52 84
d 0.767392 1 2 tcp 1000 ------- 0 0.0 2.0 54 87
d 0.777392 1 2 tcp 1000 ------- 0 0.0 2.0 56 90
d 0.787392 1 2 tcp 1000 ------- 0 0.0 2.0 58 93
d 0.797392 1 2 tcp 1000 ------- 0 0.0 2.0 60 96
d 0.807392 1 2 tcp 1000 ------- 0 0.0 2.0 62 99
d 0.817392 1 2 tcp 1000 ------- 0 0.0 2.0 64 102
d 0.827392 1 2 tcp 1000 ------- 0 0.0 2.0 66 105
d 0.837392 1 2 tcp 1000 ------- 0 0.0 2.0 68 108
d 0.847392 1 2 tcp 1000 ------- 0 0.0 2.0 70 111
d 0.857392 1 2 tcp 1000 ------- 0 0.0 2.0 72 114
d 0.867392 1 2 tcp 1000 ------- 0 0.0 2.0 74 117
d 0.877392 1 2 tcp 1000 ------- 0 0.0 2.0 76 120
d 0.887392 1 2 tcp 1000 ------- 0 0.0 2.0 78 123
d 0.897392 1 2 tcp 1000 ------- 0 0.0 2.0 80 126
d 0.907392 1 2 tcp 1000 ------- 0 0.0 2.0 82 129
d 0.917392 1 2 tcp 1000 ------- 0 0.0 2.0 84 132
d 0.927392 1 2 tcp 1000 ------- 0 0.0 2.0 86 135
d 0.937392 1 2 tcp 1000 ------- 0 0.0 2.0 88 138
d 0.947392 1 2 tcp 1000 ------- 0 0.0 2.0 90 141
d 0.957392 1 2 tcp 1000 ------- 0 0.0 2.0 92 144
d 0.967392 1 2 tcp 1000 ------- 0 0.0 2.0 94 147
d 0.977392 1 2 tcp 1000 ------- 0 0.0 2.0 96 150
d 2.113552 1 2 tcp 1000 ------- 0 0.0 2.0 117 291
d 2.153552 1 2 tcp 1000 ------- 0 0.0 2.0 122 300
d 5.520944 1 2 tcp 1000 ------- 0 0.0 2.0 417 895
d 8.928336 1 2 tcp 1000 ------- 0 0.0 2.0 719 1500
d 12.335728 1 2 tcp 1000 ------- 0 0.0 2.0 1021 2105
d 15.74312 1 2 tcp 1000 ------- 0 0.0 2.0 1323 2710
d 19.150512 1 2 tcp 1000 ------- 0 0.0 2.0 1625 3315
